/*--------------------------------*- C++ -*----------------------------------*\
| =========                 |                                                 |
| \\      /  F ield         | OpenFOAM: The Open Source CFD Toolbox           |
|  \\    /   O peration     | Version:  v2012                                 |
|   \\  /    A nd           | Website:  www.openfoam.com                      |
|    \\/     M anipulation  |                                                 |
\*---------------------------------------------------------------------------*/
FoamFile
{
    version     2.0;
    format      ascii;
    class       volVectorField;
    location    "0.009";
    object      UMean;
}
// * * * * * * * * * * * * * * * * * * * * * * * * * * * * * * * * * * * * * //

dimensions      [0 1 -1 0 0 0 0];


internalField   nonuniform List<vector> 
1000
(
(-3.370884576318469e-05 0 0)
(7.203494245250319e-06 0 0)
(2.99936496566295e-05 0 0)
(7.374918162955158e-05 0 0)
(0.0001249219781396404 0 0)
(0.0001824600126943874 0 0)
(0.0002536921317324675 0 0)
(0.0003307828114144671 0 0)
(0.000418931854208175 0 0)
(0.0005118620749805395 0 0)
(0.0006082998945260679 0 0)
(0.0007043984329712264 0 0)
(0.0008001275146925035 0 0)
(0.0008945431234564019 0 0)
(0.0009862570466473166 0 0)
(0.001073290549039557 0 0)
(0.001153711791313845 0 0)
(0.001225870590427755 0 0)
(0.001288512236409447 0 0)
(0.001340465770545981 0 0)
(0.001380978729834079 0 0)
(0.001409116846716043 0 0)
(0.001424584033954196 0 0)
(0.001426834722049982 0 0)
(0.001416045467678817 0 0)
(0.001392184857197708 0 0)
(0.00135594399096147 0 0)
(0.001307764953468338 0 0)
(0.001248596110443627 0 0)
(0.001178936448711686 0 0)
(0.001099740840785199 0 0)
(0.00101222827509839 0 0)
(0.0009196187399369591 0 0)
(0.0008253500801944597 0 0)
(0.0007311376120024675 0 0)
(0.0006371729151020248 0 0)
(0.0005441528117824982 0 0)
(0.000453152931249428 0 0)
(0.000365728943762444 0 0)
(0.0002837543228801606 0 0)
(0.0002091832119916429 0 0)
(0.0001437829010474749 0 0)
(8.901809368811354e-05 0 0)
(4.592393800296157e-05 0 0)
(1.523595093570098e-05 0 0)
(-2.59425795152844e-06 0 0)
(-7.302344452800163e-06 0 0)
(1.159373891067893e-06 0 0)
(2.263989335668555e-05 0 0)
(5.678143709240711e-05 0 0)
(0.0001030829511961306 0 0)
(0.0001610313781775713 0 0)
(0.0002300725441591682 0 0)
(0.0003093974806563517 0 0)
(0.0003969770057731811 0 0)
(0.0004890739898774018 0 0)
(0.0005822329046760357 0 0)
(0.0006753532736561232 0 0)
(0.0007682392395805614 0 0)
(0.0008602401288204437 0 0)
(0.0009505736969394453 0 0)
(0.001037734697619516 0 0)
(0.001120227154877245 0 0)
(0.001196008209516479 0 0)
(0.001263402786595423 0 0)
(0.001320539888602846 0 0)
(0.001366293263657044 0 0)
(0.001399534718043847 0 0)
(0.001419923399268933 0 0)
(0.001427028347938838 0 0)
(0.00142105121417934 0 0)
(0.001401997210793307 0 0)
(0.001370366352914581 0 0)
(0.001326303045541642 0 0)
(0.001270338714123985 0 0)
(0.001202691104778442 0 0)
(0.001124454292016604 0 0)
(0.001037712947237533 0 0)
(0.0009466305686911577 0 0)
(0.000854445833752458 0 0)
(0.0007623587456558503 0 0)
(0.0006704601995882542 0 0)
(0.00057927507183854 0 0)
(0.0004895498783201627 0 0)
(0.0004024751498064434 0 0)
(0.0003195060612671254 0 0)
(0.0002424168986820806 0 0)
(0.0001730175821333183 0 0)
(0.0001131352521658811 0 0)
(6.429019317307871e-05 0 0)
(2.77352381963349e-05 0 0)
(4.222698572554041e-06 0 0)
(-5.806008075367379e-06 0 0)
(-2.342272016231867e-06 0 0)
(1.449278206758221e-05 0 0)
(4.436557589080999e-05 0 0)
(8.701803882447682e-05 0 0)
(0.0001420982421102278 0 0)
(0.0002092487230043979 0 0)
(0.0002873636441728259 0 0)
(0.0003738549161454601 0 0)
(0.000464392253414882 0 0)
(0.0005557841652745575 0 0)
(0.0006470972327340276 0 0)
(0.0007382673944852098 0 0)
(0.0008286900030739896 0 0)
(0.00091784821928932 0 0)
(0.001004473777081581 0 0)
(0.001087411963250886 0 0)
(0.001164839427958111 0 0)
(0.001235208421677402 0 0)
(0.001296541397331146 0 0)
(0.001347445227394972 0 0)
(0.001386370132674182 0 0)
(0.001412594849749461 0 0)
(0.0014253432990263 0 0)
(0.001424670205422938 0 0)
(0.001410438404230479 0 0)
(0.001383134306406404 0 0)
(0.001342804179323653 0 0)
(0.001289945793598557 0 0)
(0.001224730165847429 0 0)
(0.001148386033772277 0 0)
(0.001063257753720538 0 0)
(0.0009737744408426062 0 0)
(0.0008831763199890633 0 0)
(0.0007926823253997058 0 0)
(0.0007022912415919703 0 0)
(0.0006124933973551844 0 0)
(0.0005238046889678965 0 0)
(0.0004372683048395037 0 0)
(0.0003540046500808164 0 0)
(0.000275631388088909 0 0)
(0.0002037133222639902 0 0)
(0.0001401243499135266 0 0)
(8.645019055644592e-05 0 0)
(4.42958153334721e-05 0 0)
(1.473864004848101e-05 0 0)
(-1.332359743845585e-06 0 0)
(-3.615245831456925e-06 0 0)
(8.054188327062242e-06 0 0)
(3.343734975824675e-05 0 0)
(7.238811752240451e-05 0 0)
(0.0001245058746486888 0 0)
(0.0001894137332158978 0 0)
(0.0002657622975880029 0 0)
(0.0003507586453185178 0 0)
(0.0004398171441459464 0 0)
(0.0005297738977121107 0 0)
(0.0006196418554999673 0 0)
(0.0007094264753318827 0 0)
(0.0007985829340927072 0 0)
(0.000886742368895417 0 0)
(0.0009727961398953574 0 0)
(0.001055819460656716 0 0)
(0.001134177944775338 0 0)
(0.001206512020898793 0 0)
(0.001270911002456631 0 0)
(0.001325949919310826 0 0)
(0.001369895707192722 0 0)
(0.001401743320248355 0 0)
(0.001420366387919836 0 0)
(0.001425474826617536 0 0)
(0.001416638009293883 0 0)
(0.001394146556364668 0 0)
(0.001357931730853422 0 0)
(0.001308495540852185 0 0)
(0.001246035389300259 0 0)
(0.00117191707603334 0 0)
(0.001088568945102376 0 0)
(0.001000587653829596 0 0)
(0.0009113391450242645 0 0)
(0.0008221842378766277 0 0)
(0.0007330678527383322 0 0)
(0.0006444430548757053 0 0)
(0.0005566806187719305 0 0)
(0.0004706940687840335 0 0)
(0.0003874011934084149 0 0)
(0.000308239417819765 0 0)
(0.000234588292050728 0 0)
(0.0001682292600908624 0 0)
(0.0001107085535515259 0 0)
(6.376564489287583e-05 0 0)
(2.866536807519187e-05 0 0)
(6.658607759306485e-06 0 0)
(-1.635819528671716e-06 0 0)
(4.350034804553757e-06 0 0)
(2.460490905476121e-05 0 0)
(5.921961246959758e-05 0 0)
(0.0001078159672616119 0 0)
(0.0001700262517752751 0 0)
(0.0002443195134180962 0 0)
(0.00032773305926012 0 0)
(0.0004154433409222794 0 0)
(0.0005041622932909379 0 0)
(0.0005928005758776986 0 0)
(0.0006814010449688074 0 0)
(0.000769466052838551 0 0)
(0.0008567385396193047 0 0)
(0.0009422269517294955 0 0)
(0.001025179894778762 0 0)
(0.001104119106437023 0 0)
(0.001177857947747673 0 0)
(0.001244586180734328 0 0)
(0.001302941564476089 0 0)
(0.001351122034984072 0 0)
(0.001387992273179811 0 0)
(0.001412155741427789 0 0)
(0.001423041582347481 0 0)
(0.001419876566812265 0 0)
(0.001402687560092719 0 0)
(0.00137118298491138 0 0)
(0.001325759241666926 0 0)
(0.001266573777529112 0 0)
(0.001195030280519336 0 0)
(0.001113607555620821 0 0)
(0.00102705135713363 0 0)
(0.0009389949354932949 0 0)
(0.0008509953252995282 0 0)
(0.0007629952363066851 0 0)
(0.0006754059566039964 0 0)
(0.000588494977488402 0 0)
(0.0005030712422597823 0 0)
(0.0004198892755769903 0 0)
(0.0003402419043122402 0 0)
(0.0002653373383769519 0 0)
(0.0001968487702887005 0 0)
(0.0001362337590139699 0 0)
(8.526460933018896e-05 0 0)
(4.529347822400324e-05 0 0)
(1.78012421698774e-05 0 0)
(3.67077471224616e-06 0 0)
(3.819168757034937e-06 0 0)
(1.853975945564604e-05 0 0)
(4.820525957411243e-05 0 0)
(9.261190043792862e-05 0 0)
(0.0001514892492023353 0 0)
(0.0002232869420548499 0 0)
(0.0003049322710363 0 0)
(0.0003913570096008146 0 0)
(0.0004789706479071694 0 0)
(0.0005665302695567265 0 0)
(0.0006540810184447212 0 0)
(0.0007411813897327702 0 0)
(0.0008276439686879651 0 0)
(0.0009125837627949382 0 0)
(0.0009953767777611472 0 0)
(0.001074682871225698 0 0)
(0.00114945959128949 0 0)
(0.001218012461514589 0 0)
(0.001279059941000051 0 0)
(0.001330812591554506 0 0)
(0.001372064558450613 0 0)
(0.001401273262655188 0 0)
(0.001417636463591374 0 0)
(0.001420116231743217 0 0)
(0.001408449997064545 0 0)
(0.00138209862371272 0 0)
(0.001341258114889499 0 0)
(0.001285952184400945 0 0)
(0.001217491585068424 0 0)
(0.001138291175461279 0 0)
(0.001053203078058445 0 0)
(0.0009662416989194559 0 0)
(0.0008792816842590386 0 0)
(0.0007922819855326084 0 0)
(0.0007056339818620605 0 0)
(0.0006195065964072242 0 0)
(0.0005346427059827768 0 0)
(0.0004516512913354427 0 0)
(0.0003717204661588968 0 0)
(0.0002958920321190733 0 0)
(0.0002257409693892191 0 0)
(0.0001626110628596522 0 0)
(0.0001082585862788529 0 0)
(6.40575899318134e-05 0 0)
(3.16230082456624e-05 0 0)
(1.203090034573388e-05 0 0)
(6.469425990029048e-06 0 0)
(1.552041592903221e-05 0 0)
(3.984952644529851e-05 0 0)
(7.949679746010824e-05 0 0)
(0.0001343794736829174 0 0)
(0.0002030793037370272 0 0)
(0.000282582101187619 0 0)
(0.000367646101723184 0 0)
(0.0004542350575325596 0 0)
(0.000540817110121706 0 0)
(0.0006274119427933937 0 0)
(0.0007136306172519706 0 0)
(0.0007993349290267498 0 0)
(0.0008837401932018552 0 0)
(0.0009663110071279822 0 0)
(0.00104584103060707 0 0)
(0.001121393271867617 0 0)
(0.001191404681155043 0 0)
(0.001254662901470626 0 0)
(0.001309442153860244 0 0)
(0.00135450237596965 0 0)
(0.001388237187509046 0 0)
(0.001409671277349311 0 0)
(0.001417578707860235 0 0)
(0.001411431068692636 0 0)
(0.001390465264287373 0 0)
(0.001354627887109657 0 0)
(0.001303767297368989 0 0)
(0.001238964310127424 0 0)
(0.001162444260363343 0 0)
(0.001079000153497415 0 0)
(0.000993116223723852 0 0)
(0.0009071053772603904 0 0)
(0.0008210424111853833 0 0)
(0.0007352594018203262 0 0)
(0.0006498884690397997 0 0)
(0.0005655686393261725 0 0)
(0.0004828381674794702 0 0)
(0.0004027466155813555 0 0)
(0.0003262431674685771 0 0)
(0.0002547625023801576 0 0)
(0.0001895761420900696 0 0)
(0.0001323593893999199 0 0)
(8.449859436396797e-05 0 0)
(4.765336411732818e-05 0 0)
(2.304327797393271e-05 0 0)
(1.204382729992725e-05 0 0)
(1.548267451658166e-05 0 0)
(3.428641747386109e-05 0 0)
(6.874724175117793e-05 0 0)
(0.0001190371986943059 0 0)
(0.0001839850888448942 0 0)
(0.0002608531227371239 0 0)
(0.0003443605184162017 0 0)
(0.0004299515906242948 0 0)
(0.0005156156949978721 0 0)
(0.0006013226680278824 0 0)
(0.0006867075874616636 0 0)
(0.0007716982216506678 0 0)
(0.0008555694786762323 0 0)
(0.0009378860285197319 0 0)
(0.001017526628928336 0 0)
(0.00109367627823429 0 0)
(0.00116485738145517 0 0)
(0.001229965807034047 0 0)
(0.001287313270754928 0 0)
(0.001335699233672797 0 0)
(0.001373456737846759 0 0)
(0.00139954008375004 0 0)
(0.001412547424536828 0 0)
(0.001411784119655621 0 0)
(0.0013962467036723 0 0)
(0.001365691521379864 0 0)
(0.001319714263129369 0 0)
(0.001259150840587348 0 0)
(0.001185838499691165 0 0)
(0.001104371185866621 0 0)
(0.001019597675488433 0 0)
(0.0009344967071647263 0 0)
(0.0008493036994200924 0 0)
(0.0007643587160047575 0 0)
(0.0006797052041479136 0 0)
(0.0005959486370590521 0 0)
(0.000513511883993264 0 0)
(0.0004333786523143578 0 0)
(0.0003563670961571417 0 0)
(0.0002838329356810661 0 0)
(0.00021693307225409 0 0)
(0.000157290940391437 0 0)
(0.0001062460724870972 0 0)
(6.548763133959881e-05 0 0)
(3.630458883203972e-05 0 0)
(2.02097881029894e-05 0 0)
(1.821469111635924e-05 0 0)
(3.145893085292925e-05 0 0)
(6.047957766572354e-05 0 0)
(0.0001056994096927586 0 0)
(0.0001662981393250773 0 0)
(0.0002399493075906165 0 0)
(0.0003215936992329924 0 0)
(0.0004061287645752787 0 0)
(0.0004909230894824428 0 0)
(0.0005757604733986621 0 0)
(0.0006603578073204402 0 0)
(0.0007446323634298071 0 0)
(0.0008279863293361978 0 0)
(0.0009099918808014187 0 0)
(0.0009896819226133664 0 0)
(0.001066261895725487 0 0)
(0.001138419445598507 0 0)
(0.001205059929897638 0 0)
(0.001264635872400672 0 0)
(0.00131590455481956 0 0)
(0.001357271271834291 0 0)
(0.001387559498963659 0 0)
(0.001405344895446848 0 0)
(0.001409711625852874 0 0)
(0.001399563017286051 0 0)
(0.001374386451486784 0 0)
(0.001333635137651049 0 0)
(0.001277769422227391 0 0)
(0.001208253092063366 0 0)
(0.001129173735639701 0 0)
(0.001045677183241276 0 0)
(0.0009614395248297894 0 0)
(0.0008771045034033244 0 0)
(0.0007929494197459133 0 0)
(0.0007090236480002189 0 0)
(0.0006258204026646859 0 0)
(0.0005437393318344037 0 0)
(0.0004636323829538295 0 0)
(0.0003862724588677138 0 0)
(0.0003128783725521255 0 0)
(0.0002445611233675054 0 0)
(0.000182831888065997 0 0)
(0.0001290217336061599 0 0)
(8.477467583195435e-05 0 0)
(5.145021164891576e-05 0 0)
(3.061402526519891e-05 0 0)
(2.343901881989356e-05 0 0)
(3.120410371343062e-05 0 0)
(5.467502333493399e-05 0 0)
(9.449637700287671e-05 0 0)
(0.0001502309335311604 0 0)
(0.0002200616541015997 0 0)
(0.0002993956539960324 0 0)
(0.000382749582942157 0 0)
(0.000466695545716495 0 0)
(0.0005507016439934531 0 0)
(0.0006345209814227215 0 0)
(0.0007180972978612345 0 0)
(0.0008009077269265171 0 0)
(0.0008825739215914354 0 0)
(0.0009622228876077284 0 0)
(0.001039122865440007 0 0)
(0.001112064571254717 0 0)
(0.001180010635767588 0 0)
(0.001241500858559709 0 0)
(0.001295313914178574 0 0)
(0.001339893822660924 0 0)
(0.001374015577464399 0 0)
(0.001396218439920198 0 0)
(0.001405458804987502 0 0)
(0.001400538374623712 0 0)
(0.001380754519060209 0 0)
(0.001345392239336764 0 0)
(0.00129458894885638 0 0)
(0.001229367805736067 0 0)
(0.001153195893049284 0 0)
(0.001071222898986946 0 0)
(0.0009878827454639846 0 0)
(0.0009043886005529471 0 0)
(0.0008210331493608066 0 0)
(0.0007378299287755318 0 0)
(0.0006552166364900441 0 0)
(0.0005735239344348284 0 0)
(0.0004935324770002859 0 0)
(0.0004159320321013224 0 0)
(0.0003418600348798881 0 0)
(0.0002723456009986104 0 0)
(0.0002088293114526227 0 0)
(0.0001525882696410462 0 0)
(0.0001052393734902543 0 0)
(6.815097175668622e-05 0 0)
(4.29351163571562e-05 0 0)
(3.085287111307203e-05 0 0)
(3.330564287655204e-05 0 0)
(5.122366649526622e-05 0 0)
(8.54683513739132e-05 0 0)
(0.0001359450124684123 0 0)
(0.0002013986852865163 0 0)
(0.0002778780027412775 0 0)
(0.0003598186866561774 0 0)
(0.0004429031302624366 0 0)
(0.0005261037311540679 0 0)
(0.0006091464768489579 0 0)
(0.0006920351673687612 0 0)
(0.0007742718254899315 0 0)
(0.0008555721218603725 0 0)
(0.0009350977590923744 0 0)
(0.001012225370285277 0 0)
(0.001085785936714023 0 0)
(0.001154851302139663 0 0)
(0.001217988811522352 0 0)
(0.001274063144952633 0 0)
(0.001321506689021129 0 0)
(0.001359131877698394 0 0)
(0.001385404330137817 0 0)
(0.001399253625624841 0 0)
(0.001399344326350236 0 0)
(0.001384892409442689 0 0)
(0.001354976130366134 0 0)
(0.001309517742798358 0 0)
(0.001249037591636752 0 0)
(0.001176366785229909 0 0)
(0.001096270893330465 0 0)
(0.001013907004660802 0 0)
(0.0009311974000413507 0 0)
(0.000848620050588956 0 0)
(0.0007661252467721483 0 0)
(0.0006841115377707684 0 0)
(0.0006028447020335722 0 0)
(0.0005230395708155842 0 0)
(0.0004453087224091045 0 0)
(0.0003707152782226873 0 0)
(0.0003002075901215363 0 0)
(0.0002351596255615868 0 0)
(0.0001767860021066865 0 0)
(0.0001266711064762187 0 0)
(8.616579802894093e-05 0 0)
(5.690835324678091e-05 0 0)
(4.020773379405487e-05 0 0)
(3.756302347162089e-05 0 0)
(5.002245511222359e-05 0 0)
(7.863799533636613e-05 0 0)
(0.0001236071157986511 0 0)
(0.0001842253812272463 0 0)
(0.0002572735137211636 0 0)
(0.0003374417795352511 0 0)
(0.000419587372479667 0 0)
(0.0005019809846910588 0 0)
(0.0005842462557578204 0 0)
(0.0006664169475377959 0 0)
(0.0007480605804932229 0 0)
(0.0008289338212861162 0 0)
(0.0009082785121056013 0 0)
(0.0009855239519191579 0 0)
(0.00105958498591153 0 0)
(0.001129586754384795 0 0)
(0.001194171887960652 0 0)
(0.00125224158346452 0 0)
(0.001302275918724135 0 0)
(0.001343083804039776 0 0)
(0.001373132306065548 0 0)
(0.001391294400977298 0 0)
(0.001396185334977788 0 0)
(0.001386906491164335 0 0)
(0.001362422091457083 0 0)
(0.001322416178287038 0 0)
(0.001267028956141247 0 0)
(0.001198375825727063 0 0)
(0.001120657327640341 0 0)
(0.001039409599767893 0 0)
(0.0009575055360281307 0 0)
(0.0008756934857531304 0 0)
(0.0007939195765909247 0 0)
(0.0007125251891804151 0 0)
(0.0006317290103286591 0 0)
(0.000552172833018745 0 0)
(0.000474412587966383 0 0)
(0.000399426074333032 0 0)
(0.0003281043170195481 0 0)
(0.0002617361111571856 0 0)
(0.000201494366568246 0 0)
(0.0001488990919635469 0 0)
(0.0001052963311915038 0 0)
(7.230323176293792e-05 0 0)
(5.12805935050975e-05 0 0)
(4.376409547682349e-05 0 0)
(5.092027279943837e-05 0 0)
(7.392231970701995e-05 0 0)
(0.0001132470502249699 0 0)
(0.0001686421093295505 0 0)
(0.000237685722871462 0 0)
(0.0003155939185617856 0 0)
(0.0003966836723651271 0 0)
(0.0004782790021098217 0 0)
(0.0005597868153566217 0 0)
(0.0006412322417962408 0 0)
(0.000722272873107843 0 0)
(0.000802673934380081 0 0)
(0.0008817842418169035 0 0)
(0.0009590504887312879 0 0)
(0.001033498555867983 0 0)
(0.001104273043792211 0 0)
(0.001170119049347866 0 0)
(0.001229947869480982 0 0)
(0.00128231695017038 0 0)
(0.001326019863150593 0 0)
(0.001359558002633347 0 0)
(0.001381751358981622 0 0)
(0.001391196513451467 0 0)
(0.001386899266677705 0 0)
(0.00136773652053983 0 0)
(0.001333200846174057 0 0)
(0.001283106115222683 0 0)
(0.001218935896455766 0 0)
(0.001144144352049471 0 0)
(0.001064312268925417 0 0)
(0.0009832405455565891 0 0)
(0.0009022130524648051 0 0)
(0.0008211742414496318 0 0)
(0.0007404468498669479 0 0)
(0.0006601667140011003 0 0)
(0.0005809476906773445 0 0)
(0.0005032425885255028 0 0)
(0.0004280027660066038 0 0)
(0.000356004624214717 0 0)
(0.0002885212517459528 0 0)
(0.00022661293211007 0 0)
(0.0001718087074190218 0 0)
(0.0001253627878167456 0 0)
(8.894167996317138e-05 0 0)
(6.385216433591609e-05 0 0)
(5.173338335534074e-05 0 0)
(5.375183166491548e-05 0 0)
(7.126294865926014e-05 0 0)
(0.0001048758020548078 0 0)
(0.0001548123408636645 0 0)
(0.0002193066844725959 0 0)
(0.0002944169412411505 0 0)
(0.0003741860878933198 0 0)
(0.0004549953440625081 0 0)
(0.0005357251513887775 0 0)
(0.0006164726236315271 0 0)
(0.0006968603512441283 0 0)
(0.0007767849575669544 0 0)
(0.0008555737014641038 0 0)
(0.000932808705411338 0 0)
(0.001007505798575163 0 0)
(0.001078938954405537 0 0)
(0.001145847519682515 0 0)
(0.001207254581351806 0 0)
(0.001261703984609595 0 0)
(0.001308068188324405 0 0)
(0.001344814286148512 0 0)
(0.001370795645146659 0 0)
(0.001384545168306989 0 0)
(0.001385047225578853 0 0)
(0.001371074254212173 0 0)
(0.001341996487026303 0 0)
(0.001297342025393765 0 0)
(0.001238048356178025 0 0)
(0.001166760982918114 0 0)
(0.001088720381403778 0 0)
(0.001008548357356094 0 0)
(0.0009282674119925128 0 0)
(0.0008479578509606269 0 0)
(0.0007678832361963419 0 0)
(0.0006881515589051931 0 0)
(0.0006092938223055238 0 0)
(0.0005317331292222319 0 0)
(0.0004563209703591739 0 0)
(0.0003838089504732885 0 0)
(0.0003153616264049302 0 0)
(0.0002520279599516892 0 0)
(0.0001952326432833611 0 0)
(0.00014624495264473 0 0)
(0.0001066495451516432 0 0)
(7.781042451310223e-05 0 0)
(6.132299323109108e-05 0 0)
(5.846594861043799e-05 0 0)
(7.06156865258883e-05 0 0)
(9.861140864762223e-05 0 0)
(0.0001429296650551024 0 0)
(0.0002025038198564433 0 0)
(0.0002741808931452092 0 0)
(0.0003522834378730148 0 0)
(0.0004321978319842393 0 0)
(0.0005121732748549317 0 0)
(0.0005921589899845034 0 0)
(0.0006718940819065674 0 0)
(0.0007512482250424553 0 0)
(0.000829679477884167 0 0)
(0.0009067577342792305 0 0)
(0.0009816268721661175 0 0)
(0.001053557096454524 0 0)
(0.001121402471325543 0 0)
(0.00118418341898662 0 0)
(0.001240534185851735 0 0)
(0.00128931537067538 0 0)
(0.001329048413630145 0 0)
(0.001358557374049624 0 0)
(0.001376384165700291 0 0)
(0.001381456768347749 0 0)
(0.001372499397441356 0 0)
(0.001348764014131209 0 0)
(0.001309570231997139 0 0)
(0.001255406916677876 0 0)
(0.001188145037057723 0 0)
(0.001112408126419566 0 0)
(0.001033296693022615 0 0)
(0.0009537824003959132 0 0)
(0.0008742061063390048 0 0)
(0.0007948165131674586 0 0)
(0.0007156694922093502 0 0)
(0.000637244321615289 0 0)
(0.0005599022090029331 0 0)
(0.0004844347306167422 0 0)
(0.0004115270860390522 0 0)
(0.0003422843747881388 0 0)
(0.000277693781180705 0 0)
(0.0002191299831218975 0 0)
(0.0001678172566736002 0 0)
(0.0001253111667127291 0 0)
(9.296175454999122e-05 0 0)
(7.236860765826082e-05 0 0)
(6.48437051449038e-05 0 0)
(7.182142095204072e-05 0 0)
(9.427338811063309e-05 0 0)
(0.0001329239080059088 0 0)
(0.0001872472959233223 0 0)
(0.0002549327430525696 0 0)
(0.0003308771420816993 0 0)
(0.0004097851245694362 0 0)
(0.0004890046860377012 0 0)
(0.0005682467206348387 0 0)
(0.0006473081066796919 0 0)
(0.0007260787452142496 0 0)
(0.0008040984407826918 0 0)
(0.0008809627339586891 0 0)
(0.000955906786606822 0 0)
(0.001028221680413019 0 0)
(0.001096855620737763 0 0)
(0.001160837428874325 0 0)
(0.001218890149839804 0 0)
(0.001269862308871983 0 0)
(0.001312349253793429 0 0)
(0.001345132568023061 0 0)
(0.001366803164525592 0 0)
(0.001376210068369472 0 0)
(0.001372088056917693 0 0)
(0.001353547052018104 0 0)
(0.001319792923759584 0 0)
(0.001270901940218998 0 0)
(0.001208121132405969 0 0)
(0.00113522240979555 0 0)
(0.00105744966516666 0 0)
(0.000978693077815523 0 0)
(0.0008998614725343455 0 0)
(0.000821176431984975 0 0)
(0.0007426890277316386 0 0)
(0.0006648015431085312 0 0)
(0.0005878307309247658 0 0)
(0.0005124704603133924 0 0)
(0.000439341674124317 0 0)
(0.0003694478664462734 0 0)
(0.0003037237115008764 0 0)
(0.0002434673813648707 0 0)
(0.0001898569389057605 0 0)
(0.0001444571276268299 0 0)
(0.0001086453254901225 0 0)
(8.400502176512037e-05 0 0)
(7.200807088767897e-05 0 0)
(7.418521024988279e-05 0 0)
(9.137643428320182e-05 0 0)
(0.0001246910357135633 0 0)
(0.0001740087655148629 0 0)
(0.0002377243883498667 0 0)
(0.0003112629289513127 0 0)
(0.0003893781325273229 0 0)
(0.0004682084751275897 0 0)
(0.0005470675878910779 0 0)
(0.0006257211191741767 0 0)
(0.0007041901606181421 0 0)
(0.0007820702777576137 0 0)
(0.0008590145575410624 0 0)
(0.000934602642835366 0 0)
(0.001007822524661386 0 0)
(0.001077905393494453 0 0)
(0.001143739521619714 0 0)
(0.001204425234480102 0 0)
(0.001258275129437711 0 0)
(0.001303965701211689 0 0)
(0.001340338970210552 0 0)
(0.001365642890630535 0 0)
(0.001378783156948934 0 0)
(0.001378900834886122 0 0)
(0.00136445773397866 0 0)
(0.001334623096988381 0 0)
(0.001289491971027137 0 0)
(0.001229765744074928 0 0)
(0.001158585131016815 0 0)
(0.001080850555082859 0 0)
(0.001000997198713116 0 0)
(0.0009207471490073433 0 0)
(0.0008406862781904133 0 0)
(0.0007610406045370165 0 0)
(0.0006819567261456744 0 0)
(0.0006035958688782202 0 0)
(0.0005268598452714935 0 0)
(0.0004519730601777199 0 0)
(0.0003798521852352128 0 0)
(0.0003113753448639971 0 0)
(0.0002481422093619181 0 0)
(0.0001909112772654608 0 0)
(0.0001415692843548223 0 0)
(0.0001017392525177425 0 0)
(7.232899875546663e-05 0 0)
(5.547841373924814e-05 0 0)
(5.233605807472931e-05 0 0)
(6.439283691081116e-05 0 0)
(9.212931992858536e-05 0 0)
(0.0001361303513781126 0 0)
(0.0001952602905705513 0 0)
(0.0002660653872522831 0 0)
(0.0003429433829828739 0 0)
(0.0004222661202456327 0 0)
(0.0005015795902167088 0 0)
(0.000580606128204208 0 0)
(0.0006596424152848078 0 0)
(0.0007378493511825868 0 0)
(0.0008151404804800839 0 0)
(0.0008909601853953472 0 0)
(0.0009648795493562534 0 0)
(0.001035757692855748 0 0)
(0.001102885773820959 0 0)
(0.001165070972417342 0 0)
(0.001221248146728045 0 0)
(0.001269803872702661 0 0)
(0.001309533910203041 0 0)
(0.00133888660509239 0 0)
(0.001356603395103599 0 0)
(0.001361446528600545 0 0)
(0.001352713525255008 0 0)
(0.001328783159321858 0 0)
(0.001289704232881197 0 0)
(0.001235789055823244 0 0)
(0.001169260190706919 0 0)
(0.001094257842889058 0 0)
(0.001015788724821724 0 0)
(0.0009365166386505715 0 0)
(0.0008570209712955945 0 0)
(0.0007780921181336727 0 0)
(0.0006998547209153548 0 0)
(0.0006220149917487527 0 0)
(0.0005458780305365254 0 0)
(0.0004714583449211013 0 0)
(0.0003994388995441863 0 0)
(0.0003307188675306937 0 0)
(0.0002665611889833248 0 0)
(0.000208033298899097 0 0)
(0.0001567391717130888 0 0)
(0.0001140289252539997 0 0)
(8.162605179491136e-05 0 0)
(6.072374743279732e-05 0 0)
(5.305019412594713e-05 0 0)
(5.999003502966662e-05 0 0)
(8.237935293669269e-05 0 0)
(0.0001205876155378882 0 0)
(0.0001743986066874155 0 0)
(0.0002412401169789947 0 0)
(0.000316272714833487 0 0)
(0.0003946366091770985 0 0)
(0.0004738832903139783 0 0)
(0.0005526722215222079 0 0)
(0.0006312909645968621 0 0)
(0.0007096075784838399 0 0)
(0.0007865978544383619 0 0)
(0.000862636084595157 0 0)
(0.0009365360181392684 0 0)
(0.001007858179109592 0 0)
(0.001075621430907575 0 0)
(0.001138985099923976 0 0)
(0.001196567817911519 0 0)
(0.001247590620460541 0 0)
(0.001289944869549061 0 0)
(0.001322767535685594 0 0)
(0.001344343937762805 0 0)
(0.001353536088840476 0 0)
(0.001349583879173942 0 0)
(0.001331152160011984 0 0)
(0.001297577517635767 0 0)
(0.001249214332243407 0 0)
(0.001187255253605869 0 0)
(0.001115375158516429 0 0)
(0.001038132469279399 0 0)
(0.0009595306067236374 0 0)
(0.0008808471463567233 0 0)
(0.0008017915619199624 0 0)
(0.0007239536268409083 0 0)
(0.0006464911620012458 0 0)
(0.0005705406976279101 0 0)
(0.000496131279500906 0 0)
(0.0004241240230285528 0 0)
(0.0003549934056838764 0 0)
(0.0002899111788345086 0 0)
(0.0002301084584159146 0 0)
(0.0001766312235248932 0 0)
(0.0001313811793731716 0 0)
(9.572818632237984e-05 0 0)
(7.089539289208851e-05 0 0)
(5.883121864949659e-05 0 0)
(6.05912718174023e-05 0 0)
(7.744835272775058e-05 0 0)
(0.0001098945952512459 0 0)
(0.000157983519475515 0 0)
(0.0002200645892625028 0 0)
(0.0002923178180451459 0 0)
(0.0003691938783053947 0 0)
(0.0004479715205996902 0 0)
(0.0005265604773610162 0 0)
(0.0006044869868929954 0 0)
(0.0006825275598919668 0 0)
(0.0007596797179723566 0 0)
(0.0008350226985050971 0 0)
(0.0009092452913453999 0 0)
(0.0009806366680774517 0 0)
(0.001048821495031641 0 0)
(0.001112915101275246 0 0)
(0.001171915450116523 0 0)
(0.001224342988525956 0 0)
(0.001269524341267168 0 0)
(0.00130512631476266 0 0)
(0.001330487604685529 0 0)
(0.001343778027161969 0 0)
(0.00134417765848202 0 0)
(0.001330811804603954 0 0)
(0.001302674206874279 0 0)
(0.001259669061342861 0 0)
(0.001202692527999827 0 0)
(0.001134190574530071 0 0)
(0.00105905087243853 0 0)
(0.0009809191912473157 0 0)
(0.000902662207374214 0 0)
(0.0008244255075993559 0 0)
(0.0007458501674199497 0 0)
(0.0006691232856082474 0 0)
(0.0005924124559287226 0 0)
(0.0005186552307411627 0 0)
(0.0004462847096018212 0 0)
(0.000376794735990946 0 0)
(0.0003109494811646569 0 0)
(0.0002498742369347641 0 0)
(0.0001946943769247709 0 0)
(0.0001469821597054712 0 0)
(0.0001080739705421107 0 0)
(7.976699763437283e-05 0 0)
(6.295612559035537e-05 0 0)
(5.998675529416638e-05 0 0)
(7.148036720803474e-05 0 0)
(9.819665008842002e-05 0 0)
(0.0001404857857390358 0 0)
(0.0001974235491876731 0 0)
(0.000265897837938878 0 0)
(0.0003411302820813735 0 0)
(0.0004184275297406334 0 0)
(0.000496733394282661 0 0)
(0.0005747779299899181 0 0)
(0.0006514068814742946 0 0)
(0.0007288933469810108 0 0)
(0.0008039667221867639 0 0)
(0.0008785063998799143 0 0)
(0.0009496119388019404 0 0)
(0.001018147738407719 0 0)
(0.001082673381099597 0 0)
(0.001142534254019334 0 0)
(0.001196701508792034 0 0)
(0.001243501325495054 0 0)
(0.001282271621911721 0 0)
(0.001310778325452273 0 0)
(0.00132811728427201 0 0)
(0.001332809693570412 0 0)
(0.00132412760815207 0 0)
(0.001301124822230436 0 0)
(0.001263356891904407 0 0)
(0.001211417509317512 0 0)
(0.001146996117469591 0 0)
(0.00107402502402942 0 0)
(0.0009973148822751241 0 0)
(0.0009191684657507926 0 0)
(0.0008413965466971806 0 0)
(0.0007638073971875153 0 0)
(0.0006854405674975095 0 0)
(0.0006101641494393449 0 0)
(0.0005340515899699624 0 0)
(0.0004632195760126628 0 0)
(0.0003927008698704004 0 0)
(0.0003262976893723817 0 0)
(0.0002641020967329863 0 0)
(0.0002076533273974308 0 0)
(0.0001575161386384668 0 0)
(0.0001158587191637693 0 0)
(8.36925867084072e-05 0 0)
(6.300050486072155e-05 0 0)
(5.476105779843914e-05 0 0)
(6.121746573948414e-05 0 0)
(8.220772332188105e-05 0 0)
(0.0001188014444931217 0 0)
(0.0001703942087690922 0 0)
(0.000234615017719146 0 0)
(0.0003071728267035017 0 0)
(0.0003834961125886945 0 0)
(0.000460448295776525 0 0)
(0.0005378370169906454 0 0)
(0.0006151776600705672 0 0)
(0.0006904520461162753 0 0)
(0.0007669690110226631 0 0)
(0.0008399099772294403 0 0)
(0.0009136955738091047 0 0)
(0.0009807391737848409 0 0)
(0.001045894749944223 0 0)
(0.001106143860183061 0 0)
(0.001161662222812964 0 0)
(0.001209824422231173 0 0)
(0.001251141986733266 0 0)
(0.001283025624474584 0 0)
(0.00130434516358871 0 0)
(0.001312901189920726 0 0)
(0.001308957895117219 0 0)
(0.001289476868454717 0 0)
(0.001259576265635664 0 0)
)
;

boundaryField
{
    inlet
    {
        type            calculated;
        value           uniform (-3.370884576318469e-05 0 0);
    }
    outlet
    {
        type            calculated;
        value           uniform (0.001236249453158672 0 0);
    }
    frontAndBack
    {
        type            empty;
    }
}


// ************************************************************************* //
