/*--------------------------------*- C++ -*----------------------------------*\
| =========                 |                                                 |
| \\      /  F ield         | OpenFOAM: The Open Source CFD Toolbox           |
|  \\    /   O peration     | Version:  v2012                                 |
|   \\  /    A nd           | Website:  www.openfoam.com                      |
|    \\/     M anipulation  |                                                 |
\*---------------------------------------------------------------------------*/
FoamFile
{
    version     2.0;
    format      ascii;
    class       volScalarField;
    location    "0.015";
    object      p;
}
// * * * * * * * * * * * * * * * * * * * * * * * * * * * * * * * * * * * * * //

dimensions      [1 -1 -2 0 0 0 0];


internalField   nonuniform List<scalar> 
1000
(
101311.3270337707
101311.2434346432
101302.3454241813
101295.0263144612
101287.6608013238
101281.1495960261
101275.7534662222
101271.6981021284
101269.1707364513
101268.4781704933
101268.6403394093
101269.5568480178
101271.6169196703
101274.8901793091
101279.2000905892
101284.2906343888
101289.9110083716
101295.8350514244
101301.8628560502
101307.8335191606
101313.6535539238
101319.3176093643
101324.8969728498
101330.4987525663
101336.2151877508
101342.0767141298
101348.0206800182
101353.9632884809
101359.7963278541
101365.5330396645
101371.0670672688
101375.5501392057
101379.5151456734
101382.7431618713
101385.153471612
101386.836668664
101387.5232511575
101386.9953206346
101385.3947612917
101382.4309978378
101377.9644840374
101372.0685733978
101364.9964871002
101357.0496358746
101348.499423854
101339.5837576503
101330.5196610282
101321.4863832419
101312.6190695809
101304.0373333781
101295.8876627578
101288.4785290129
101282.4274148435
101278.2934273991
101276.0834570532
101275.258075744
101274.9296419366
101275.36644313
101276.5719894467
101278.7211605863
101281.9083367187
101286.1843230627
101291.496856905
101297.651734866
101304.3415158774
101311.2280186818
101318.0332750793
101324.5956215914
101330.8751910144
101336.919111018
101342.8080268812
101348.6128191802
101354.3765435359
101360.1400783608
101365.8721518964
101371.4612312803
101376.9229106003
101381.6662772557
101385.4417789425
101388.7193009543
101391.2688349808
101393.1196643216
101394.3312790013
101394.6504336438
101393.8910947093
101392.162340952
101389.2062820813
101384.9280399344
101379.3677291866
101372.7011565245
101365.1836705811
101357.1044640846
101348.7600663514
101340.4256669894
101332.3139138479
101324.5618785102
101317.2581490176
101310.4767938084
101304.3720364616
101299.2624609318
101295.4225603129
101292.9707223496
101291.6166879694
101290.550910345
101290.0433255708
101290.1348828036
101290.7261913105
101291.9801026608
101294.0231920668
101296.9490611692
101300.8142202678
101305.6172853599
101311.2863792897
101317.6830622737
101324.6233777591
101331.9126497302
101339.3776120912
101346.8826939249
101354.3451273503
101361.7254573416
101368.9314853926
101375.8309918305
101382.3604439736
101387.7765219091
101391.3636384836
101394.5051146491
101396.9032773102
101398.6400508365
101399.7685610569
101400.092692126
101399.4778024531
101397.963947623
101395.27810199
101391.3139753538
101386.1029333983
101379.7768241597
101372.5309642697
101364.6169879131
101356.3288176934
101347.962035312
101339.7570881756
101331.8663705614
101324.3695937532
101317.314654626
101310.8296932818
101305.254327285
101300.8966735602
101297.9075644269
101296.2322547657
101294.7430667615
101293.7227989375
101293.2699031903
101293.3378696062
101293.9491446652
101295.3280419989
101297.6223047754
101300.9329374156
101305.3226586722
101310.7828899071
101317.2142090686
101324.4400688624
101332.2407414374
101340.3837933806
101348.6528798319
101356.8857524997
101364.9708317272
101372.7928429957
101380.2278808972
101387.0898434135
101392.6956287475
101396.4145223881
101399.5544100237
101402.072992273
101403.9342881823
101405.1687947279
101405.6610768662
101405.3624129109
101404.3185293344
101402.2869375208
101399.0779951315
101394.6262456287
101388.9680040308
101382.2080041503
101374.5254097892
101366.1765818555
101357.4649878096
101348.680991119
101340.0524908732
101331.7544077188
101323.948733748
101316.8521784535
101310.849870205
101306.2912788564
101303.166773784
101301.3506680491
101299.732968245
101298.4939979055
101297.7569582033
101297.4718298183
101297.6142465854
101298.3234209794
101299.8351888391
101302.3056731502
101305.8561719638
101310.5555370481
101316.3988960099
101323.306134792
101331.1231929507
101339.6262704835
101348.5547432333
101357.6743948837
101366.7798268084
101375.6572577565
101384.1028351487
101391.771189275
101397.9120365706
101402.1855574577
101405.9013199562
101408.9138363762
101411.2325047324
101412.9059794792
101413.9575127597
101414.245126019
101413.7314770546
101412.4687887809
101410.1926477359
101406.7069113761
101401.9245204403
101395.8832687999
101388.7094174442
101380.5879818918
101371.7583436167
101362.4972492067
101353.0726272242
101343.742733968
101334.7893728414
101326.5670091852
101319.5890761663
101314.3033970053
101310.68506709
101308.3142203744
101306.1967132912
101304.5957034912
101303.6240725571
101303.2046259021
101303.1736255338
101303.5684922189
101304.6120157578
101306.4666505475
101309.2564132875
101313.1002619601
101318.0857505766
101324.2250171958
101331.4349907394
101339.5666946586
101348.4452694782
101357.8882131295
101367.6711274449
101377.5032172206
101387.1620172329
101396.1659488762
101403.2990107594
101409.1875495633
101414.392919616
101418.8211426947
101422.5861403829
101425.7341021965
101428.2024613209
101429.9101694573
101430.8573655158
101430.7960335101
101429.6052130847
101427.3157558568
101423.738319076
101418.7668275381
101412.3486319526
101404.566045401
101395.6403035582
101385.8641822882
101375.5121133255
101364.8897437993
101354.4172109995
101344.5679320646
101335.9418252352
101329.1846513034
101324.3152438306
101320.2431247284
101316.9649001692
101314.5178241239
101312.6933257378
101311.3808475598
101310.6608955339
101310.5668558944
101311.0552599954
101312.2250006812
101314.2913000458
101317.4241576364
101321.7509963789
101327.346126814
101334.2144796813
101342.2913031573
101351.4599800967
101361.5704906418
101372.3620583043
101383.4200463703
101394.5099376919
101404.9398851946
101413.2742290245
101420.8731558853
101427.4808423233
101433.1456093069
101438.0029021473
101442.1109606645
101445.4472311636
101447.9480174005
101449.5841781293
101450.4306496075
101450.1826631778
101448.6947501459
101446.0088803058
101441.9386325799
101436.4036432334
101429.3532007372
101420.8626839526
101411.1202049021
101400.344042346
101388.86732812
101377.2143598009
101365.8740836912
101355.5847791368
101347.3258190957
101340.514642828
101334.5519947438
101329.6704329559
101325.7595179518
101322.6736542138
101320.3129884003
101318.6145847771
101317.4754663034
101317.145138668
101317.784124813
101319.3029967662
101321.8740569014
101325.6427787365
101330.7638669463
101337.3208931807
101345.311806085
101354.6687636579
101365.2735552655
101376.8553633498
101388.9099479862
101401.1266950468
101412.7345409019
101422.3766859173
101431.3526879465
101439.1828164831
101445.8897988533
101451.5610405849
101456.2594408142
101460.0371425624
101462.9510594241
101464.9629022621
101466.1572695425
101466.3061438351
101465.2565769374
101463.0216734572
101459.4372120168
101454.4943669397
101448.1518479277
101440.3616427939
101431.1054704067
101420.4878056495
101408.8292791419
101396.6953206248
101384.593961218
101373.1648343682
101363.6312770138
101355.3705228246
101347.9958290534
101341.7383116576
101336.5425517131
101332.2905450474
101328.8716113972
101326.2017004586
101324.3013586712
101323.1300227539
101322.9131181943
101323.8650458699
101326.0147574685
101329.4781375316
101334.2928821963
101340.5453500351
101348.3277242704
101357.6690576214
101368.4807002042
101380.486983504
101393.1720694962
101406.1972217115
101418.7959006081
101429.5641770524
101439.6114220731
101448.4751962887
101456.0591332789
101462.4123623
101467.6332793386
101471.8199040865
101475.0389007345
101477.2974806228
101478.62727184
101479.0148413237
101478.2228940212
101476.189366473
101472.9223686404
101468.3363585888
101462.407767952
101455.0789040111
101446.3167560055
101436.1823796844
101424.837416168
101412.6675273467
101400.291298316
101388.2208012263
101377.4829861316
101368.3753757359
101359.9328238911
101352.5943770545
101346.3576210797
101341.1407482143
101336.8378894554
101333.380853847
101330.7568870604
101329.0759043311
101328.1969783469
101328.597577031
101330.4008312664
101333.507172969
101338.1832466261
101344.4138588529
101352.2183594083
101361.61045929
101372.5483787379
101384.8206502616
101397.9732821911
101411.6706700864
101425.1570536517
101437.0163918028
101448.0047383492
101457.8065574958
101466.2225792511
101473.2784152618
101479.0618709303
101483.6706329184
101487.1928597341
101489.7197951501
101491.2488573715
101491.9684449239
101491.4778261121
101489.7122369333
101486.8301437172
101482.5611585316
101476.8776805951
101469.7580981911
101461.2465382312
101451.3868774894
101440.21016137
101427.9588606927
101415.2376226092
101402.5094723847
101390.6105659668
101380.6857123931
101371.3542660616
101363.2423361762
101356.3864934079
101350.7435172777
101346.2129815741
101342.6978747087
101340.1404327632
101338.5743570565
101337.813404371
101338.212011978
101339.8676398419
101342.7221812979
101347.0258833163
101352.7597899508
101359.8514524603
101368.2075276705
101377.7436159806
101388.3431797499
101399.7286112728
101411.3857553078
101422.7679005533
101433.3443608687
101442.4377550645
101449.7400815951
101455.5218824393
101460.3797452228
101463.9041070966
101466.153274949
101467.4557929553
101467.9214617195
101467.6573490687
101466.8688015955
101465.4784111597
101463.4048152562
101460.5283102547
101456.7068122517
101451.8117007897
101445.7388660556
101438.3999180355
101429.7574345263
101419.8827762065
101408.9511954633
101397.3233462489
101385.527625604
101374.0304755284
101363.8318831365
101355.8046240679
101348.4706538652
101342.2988963874
101337.2312533441
101333.1865513703
101330.1046672372
101327.9099991166
101326.554641103
101325.8554842748
101326.0194150078
101327.1894431499
101329.4005527607
101332.8589156991
101337.630124783
101343.8272319258
101351.5399797157
101360.7621215425
101371.3547581121
101383.0593213304
101395.4925867529
101408.2946366177
101420.821719197
101431.9139041431
101441.3281767444
101449.7446993984
101456.6930587339
101462.2055867391
101466.4202691786
101469.4748209435
101471.4443136557
101472.4981632308
101472.6535585108
101471.9277641334
101470.3951241348
101467.9613723092
101464.588489718
101460.1813641977
101454.6093811079
101447.7510114772
101439.5608631088
101430.0732892832
101419.3752654452
101407.757172685
101395.7976054384
101383.916229881
101372.8650674693
101363.9666876749
101355.9028954151
101348.9095570066
101343.0755436929
101338.3377966697
101334.6197909996
101331.8548652899
101329.971715916
101328.9150243664
101328.5885415628
101329.2787531782
101331.1278158351
101334.1357236024
101338.4782315468
101344.2289179176
101351.4763714642
101360.2459929477
101370.4490734015
101381.9190046072
101394.3611522958
101407.3698180997
101420.3752553718
101432.317078381
101442.4943299636
101451.7149125466
101459.5505115277
101465.9349808548
101470.9310972275
101474.6336211556
101477.1596633465
101478.6194344306
101479.1727986534
101478.7609718279
101477.44227138
101475.2947145522
101472.1719357585
101467.9971675675
101462.6905117232
101456.2056467017
101448.4890695383
101439.4799087415
101429.1919038177
101417.8392524894
101405.9000178602
101393.8534663801
101382.2658268346
101372.4265700187
101363.8605928355
101356.1479525985
101349.5551467625
101344.0824835112
101339.6769108916
101336.2833557019
101333.8444069957
101332.3329944698
101331.6222767972
101331.8909468001
101333.2990198676
101335.9212417392
101339.937329392
101345.4199306181
101352.3993284252
101360.8833282964
101370.8229176064
101382.1368620842
101394.5941093899
101407.7620906151
101421.1346336145
101433.7903199051
101444.7707701671
101454.6534372035
101463.2313937142
101470.3132213626
101475.9397480381
101480.19167338
101483.1756647962
101484.9757496154
101485.8508409237
101485.7119069773
101484.6105775108
101482.6970677652
101479.7744223591
101475.8158196156
101470.7730975503
101464.6069513706
101457.2427942876
101448.6129190798
101438.7307469062
101427.713585495
101415.8908755512
101403.8062164451
101391.8825924618
101381.0024657434
101372.0366925611
101363.6358300012
101356.3849488752
101350.2869330536
101345.3141537085
101341.4139943375
101338.5221425972
101336.5712782857
101335.5585964696
101335.4407778773
101336.5264961624
101338.9536521608
101342.6888718733
101347.852531297
101354.4404795921
101362.4692190243
101371.9120986682
101382.6718205784
101394.5071532233
101407.0043916523
101419.7225164738
101432.0563349886
101443.097865227
101452.4604269963
101460.3549665935
101467.0236707279
101472.1043401252
101475.6986982753
101477.9844927298
101479.1661663176
101479.326786329
101478.5873052576
101477.1179842273
101474.8880930944
101471.9146776376
101468.1601421717
101463.536255492
101457.9338016835
101451.2614760249
101443.4574077389
101434.4820724145
101424.3560639757
101413.284680134
101401.7275956037
101390.0876552826
101378.920782949
101369.5643123645
101361.3652249145
101354.0746817548
101347.9162930363
101342.8853789562
101338.9476976905
101336.0646083943
101334.158254903
101333.1446648104
101332.9117764979
101333.6827704389
101335.5850766039
101338.6398723023
101343.0139333682
101348.785071043
101356.0383602379
101364.7938411259
101374.9631777715
101386.3844396684
101398.7796270501
101411.798063956
101424.8973948553
101437.0740940917
101447.6172684073
101456.9377417471
101464.8777610294
101471.2429253088
101476.1140227526
101479.5993953617
101481.7926448461
101482.8540342918
101482.8292838618
101481.8467664766
101480.0717346545
101477.4541306747
101473.9808961734
101469.5819748166
101464.2016552314
101457.7976880081
101450.3090933301
101441.6722961648
101431.896532985
101421.1097102767
101409.648405617
101398.0007661576
101386.5637419892
101376.261693908
101367.7688372276
101359.8867312825
101353.147827819
101347.5446852914
101343.0488869632
101339.6230402995
101337.2198495608
101335.7901696585
101335.1697276605
101335.5558546389
101337.0552224613
101339.6735723398
101343.6275891371
101349.0082799157
101355.8620778241
101364.1974038173
101373.9612244112
101385.0657439765
101397.2825663369
101410.2074185782
101423.377481948
101435.9894319834
101447.183289863
101456.8842974655
101465.335385697
101472.2086760117
101477.5208194041
101481.3628839566
101483.8272685544
101485.1249568411
101485.3054658675
101484.4885443995
101482.8914189503
101480.4339028424
101477.1277687868
101472.945431766
101467.8435588075
101461.7557473922
101454.6075347134
101446.3565047947
101437.0121549197
101426.63193414
101415.4533594072
101403.9545111921
101392.4531531265
101381.5628905261
101372.5954876202
101364.3906787499
101357.1908844167
101351.1421778115
101346.2393479402
101342.4441436417
101339.7095684155
101337.9848996308
101337.1604871327
101337.2627871518
101338.4112242957
101340.6996069147
101344.2437629502
101349.1275528395
101355.4041893544
101363.1149705116
101372.2364204683
101382.6446292696
101394.1149506154
101406.305298854
101418.8500327877
101431.1791800293
101442.3982548834
101452.0364948721
101460.1363524382
101466.8891756472
101472.0654840464
101475.6845138308
101478.0047126008
101478.9991358951
101478.7844329668
101477.7659286529
101475.9336689409
101473.3461027398
101470.0333057878
101465.9907287567
101461.1644106602
101455.4839625576
101448.8885541232
101441.322783577
101432.7471579822
101423.1849104556
101412.7660798477
101401.8149988473
101390.7671327453
101379.9504414495
101370.2896106009
101362.3503416802
101355.0455632923
101348.8783600182
101343.871944944
101340.0385466057
101337.3585695369
101335.7553542474
101335.0552649457
101335.254182354
101336.3257661859
101338.2571799256
101341.2114484846
101345.3241146811
101350.7578187211
101357.6322459204
101365.9727332477
101375.6971374633
101386.6901708866
101398.720462449
101411.4383692715
101424.3673645557
101436.6284457779
101447.4650373816
101456.9595338546
101465.0846033615
101471.5615427976
101476.4556900173
101479.8730224975
101482.0137416316
101482.8238257069
101482.4176750104
101481.1945558495
101479.1158122232
101476.2290086355
101472.5238188053
101467.9748938457
101462.5377628601
101456.1559811435
101448.7638962626
101440.3275872323
101430.8879980393
101420.5586462404
101409.6147405939
101398.4927246964
101387.4681764958
101377.1795047215
101368.8169469491
101361.1017253215
101354.3917089198
101348.8244590237
101344.4214169946
101341.1671604064
101339.0258055155
101337.854177181
101337.6006683315
101338.2558810727
101339.7911273066
101342.3370749157
101346.0325665416
101351.0371601726
101357.4804748821
101365.4146451643
101374.8002215412
101385.5376108471
101397.4045855818
101410.026146663
101423.0222964422
101435.6592018323
101447.0727387338
101457.0564918734
101465.7033330388
101472.7101798032
101478.0777255795
101481.9153326604
101484.3904760527
101485.4743834009
101485.3098160318
101484.2748202444
101482.3728275146
101479.6822266789
101476.2255045589
101471.988063117
101466.8896640142
101460.8281308639
101453.7397300117
101445.619512117
101436.4958192669
101426.4253506868
101415.6146090144
101404.4794420163
101393.3667049975
101382.7558914523
101373.6807376448
101365.8767711625
101358.8233861111
101352.8518489356
101347.9959648833
101344.2501543358
101341.6215547601
101340.0743125744
101339.5141193138
101339.9569718939
101341.3415668377
101343.6417296193
101346.9821033163
101351.4896973213
101357.3113307774
101364.5518958675
101373.2175318796
101383.1770674187
101394.2092444885
101405.9739669273
101418.0890545137
101430.0153844246
101440.969796506
101450.4456661283
101458.4408091751
101464.9428575986
101470.108093825
101473.6501857921
101475.7926206041
101476.538481109
101475.9147363827
101474.3982648701
101472.0174852747
101468.9225792091
101465.2302164063
101460.9615342746
101456.0574265959
101450.4230893363
101443.9699278172
101436.6342368436
101428.3979786946
101419.302872611
101409.4471672303
101399.0895606063
101388.6378442873
101378.3012465142
101368.7115387267
101361.0493866303
101354.203219545
101348.4461166488
101343.835189328
101340.2205246855
101337.4611323257
101335.5410441073
101334.5719438354
101334.7961692475
101336.6681571362
101340.1084042079
101344.3927252643
101348.8554264907
101353.298251808
101358.4129492329
101365.2883630441
101374.3239998012
101385.7027352542
101397.6078229871
101416.0428022549
)
;

boundaryField
{
    inlet
    {
        type            uniformFixedValue;
        uniformValue    sine;
        uniformValueCoeffs
        {
            frequency       constant 3000;
            scale           constant 50;
            level           constant 101325;
        }
        value           uniform 101325;
    }
    outlet
    {
        type            characteristicVelocityInletOutletPressure;
        UName           U;
        pName           p;
        TName           T;
        phiName         phi;
        rhoName         rho;
        U               (0 0 0);
        p               101325;
        T               300;
        value           uniform 101416.0428022549;
    }
    frontAndBack
    {
        type            empty;
    }
}


// ************************************************************************* //
