/*--------------------------------*- C++ -*----------------------------------*\
| =========                 |                                                 |
| \\      /  F ield         | OpenFOAM: The Open Source CFD Toolbox           |
|  \\    /   O peration     | Version:  v2012                                 |
|   \\  /    A nd           | Website:  www.openfoam.com                      |
|    \\/     M anipulation  |                                                 |
\*---------------------------------------------------------------------------*/
FoamFile
{
    version     2.0;
    format      ascii;
    class       volScalarField;
    location    "0.015";
    object      pMean;
}
// * * * * * * * * * * * * * * * * * * * * * * * * * * * * * * * * * * * * * //

dimensions      [1 -1 -2 0 0 0 0];


internalField   nonuniform List<scalar> 
1000
(
101325.0277265856
101325.024005064
101325.0437667757
101325.0664742783
101325.0912986782
101325.11940146
101325.1482705865
101325.1798739249
101325.2133261662
101325.2483531608
101325.2833556091
101325.3176619687
101325.3515363089
101325.3841486981
101325.4147703376
101325.4423413681
101325.4670588105
101325.4880801239
101325.5059769397
101325.5202683414
101325.5306460468
101325.5376518926
101325.5410502887
101325.5419640166
101325.5394983219
101325.5345575397
101325.5269729432
101325.5171012504
101325.5050633092
101325.4920922277
101325.4760517219
101325.4611521779
101325.4460831668
101325.4317615422
101325.4179339473
101325.405055134
101325.3936131814
101325.3833043442
101325.3737998372
101325.3661618441
101325.3599282603
101325.3563667054
101325.3556556654
101325.3574927577
101325.3624464201
101325.3704453265
101325.3823954566
101325.3976460225
101325.4166185983
101325.4393633903
101325.464807488
101325.4931713682
101325.5248710624
101325.5563872934
101325.5907926869
101325.6252729789
101325.6600029327
101325.6943964814
101325.727954997
101325.761183143
101325.7926959709
101325.8211353076
101325.8473575762
101325.86995667
101325.8889725782
101325.9048403439
101325.9165480813
101325.924834333
101325.9294191696
101325.9311557154
101325.9300336699
101325.9259879157
101325.9211082182
101325.9124241649
101325.9016822245
101325.890273792
101325.8747064118
101325.8603467091
101325.84556203
101325.8313980557
101325.8178639339
101325.8048893117
101325.793777932
101325.783689121
101325.7737929034
101325.765687869
101325.7585047268
101325.7528437648
101325.7498521496
101325.7487253762
101325.7502434443
101325.7543758241
101325.7616120767
101325.7723716158
101325.7853869244
101325.8048628184
101325.8242892247
101325.8467475946
101325.8725850185
101325.8977524936
101325.9265136238
101325.9560735451
101325.9862069509
101326.0165108685
101326.0461063106
101326.0761303987
101326.1056318145
101326.1328242921
101326.1587901112
101326.1831140086
101326.2048289776
101326.2249641569
101326.2420825892
101326.2563730123
101326.2674369683
101326.2752791212
101326.2804957182
101326.2812042864
101326.2829556836
101326.2785975034
101326.2717493005
101326.2633257949
101326.2502503144
101326.2370895851
101326.2235856215
101326.2105721737
101326.1983853177
101326.1866074056
101326.1765952506
101326.1686006685
101326.1605207845
101326.153706011
101326.1489363941
101326.1449395498
101326.1437075491
101326.1444618783
101326.1474555583
101326.1532189075
101326.1615424647
101326.1735784316
101326.187263324
101326.2080245425
101326.2292160701
101326.2528880823
101326.2798350553
101326.3073053311
101326.3370362018
101326.3685907082
101326.4006953777
101326.4330397203
101326.4647989207
101326.4960898702
101326.5281258411
101326.557266658
101326.5841555392
101326.6106249353
101326.6337825356
101326.655554903
101326.6748091019
101326.6911208428
101326.7048143388
101326.7152782996
101326.7234541219
101326.7276929373
101326.7314653397
101326.7320386932
101326.728377407
101326.7229767452
101326.7142467401
101326.703261116
101326.6926428325
101326.6822925123
101326.6726449509
101326.6636824455
101326.6554019964
101326.650526415
101326.6451469243
101326.6404354713
101326.6386594544
101326.6369435641
101326.6378927039
101326.640933925
101326.6457142679
101326.6532941124
101326.6631900855
101326.6764838098
101326.6924193372
101326.7120872393
101326.7376474879
101326.7625113841
101326.7911631462
101326.8218189411
101326.8527556899
101326.886448223
101326.9206900115
101326.95523506
101326.9895000375
101327.0226056409
101327.056781742
101327.0884567812
101327.1172121695
101327.1455759904
101327.1706644359
101327.1942854889
101327.2155070685
101327.2337180152
101327.2495342235
101327.2625066584
101327.2727791651
101327.2806585171
101327.2844905768
101327.2913290462
101327.2894961359
101327.2870008574
101327.2823272543
101327.2736610876
101327.2662856463
101327.2590231182
101327.2526517186
101327.2472975287
101327.2424223386
101327.2406723726
101327.2399955257
101327.2393750259
101327.2414150171
101327.2444679127
101327.2496139348
101327.2569418471
101327.2656418699
101327.2771145639
101327.291141172
101327.3076632657
101327.3279780092
101327.3486216421
101327.3807490328
101327.4082711923
101327.4403545824
101327.4753079236
101327.5091835014
101327.5460695756
101327.5831824875
101327.6208213311
101327.6583076428
101327.6945342829
101327.7307267484
101327.7665114188
101327.7984927499
101327.8288446207
101327.8575545447
101327.8838463922
101327.908298342
101327.9291316365
101327.9478395668
101327.9639566042
101327.9768536879
101327.9880511083
101327.9935615407
101328.0041981799
101328.0057843809
101328.0056313655
101328.0044834421
101327.9990506287
101327.9952235125
101327.9916995319
101327.9898446667
101327.9896044495
101327.9906096328
101327.9940391804
101328.0015549092
101328.0084905616
101328.0174945445
101328.0298899995
101328.043505492
101328.0599937116
101328.0774487801
101328.0974990418
101328.1202148368
101328.1450634628
101328.1734698472
101328.2025657442
101328.2393142633
101328.2781324679
101328.3163371735
101328.3584332811
101328.3994958729
101328.441975884
101328.4845698763
101328.5276466485
101328.5702572934
101328.6115189075
101328.6513330768
101328.6918783675
101328.7284332062
101328.7619510214
101328.7944209016
101328.824025138
101328.851972777
101328.8767666062
101328.8986331785
101328.9185455331
101328.9354648937
101328.9505869576
101328.9618786706
101328.9730019001
101328.9842809578
101328.9879864103
101328.9921496318
101328.9939030171
101328.9953398747
101328.9980949535
101329.0026659446
101329.0093717343
101329.0180695961
101329.0286004328
101329.0441466865
101329.0602816859
101329.0778588125
101329.0991550864
101329.1219618258
101329.147764294
101329.1756109874
101329.2044648798
101329.2363994206
101329.2705183972
101329.3074849873
101329.3466803288
101329.3884088359
101329.4385026233
101329.485745015
101329.5352635463
101329.5854164085
101329.6342005542
101329.6838140068
101329.7329952605
101329.7816177823
101329.8286884867
101329.8732118807
101329.9177202811
101329.959238535
101329.9969614365
101330.0326343781
101330.0652037376
101330.0961130505
101330.1250743562
101330.1496978312
101330.1730999743
101330.194128429
101330.2128863429
101330.2298809238
101330.2426009119
101330.2618013915
101330.2701352365
101330.2800240071
101330.2884365561
101330.2953367211
101330.3040342523
101330.3140810719
101330.3269514322
101330.3420749043
101330.3590922706
101330.3803379591
101330.404197001
101330.4290419083
101330.4570152139
101330.4867330277
101330.519451868
101330.5551108454
101330.5907931762
101330.6294234389
101330.6705337769
101330.7136352071
101330.7601210463
101330.80663094
101330.8636028316
101330.9173403798
101330.9743324932
101331.03132412
101331.0866261697
101331.1424299265
101331.1971333876
101331.2514396503
101331.303926318
101331.3535609317
101331.4015128966
101331.4478337614
101331.4895471777
101331.5284078513
101331.5644168545
101331.5981298621
101331.6300856292
101331.6584458815
101331.6843015618
101331.7090098671
101331.7313402141
101331.7527763847
101331.7699121032
101331.7917410239
101331.807419807
101331.8219665921
101331.8360502249
101331.848398092
101331.8620363745
101331.8767269318
101331.8943620207
101331.9145320399
101331.9369026266
101331.9623116728
101331.9920735494
101332.0223322328
101332.0555140404
101332.0912821837
101332.1289625892
101332.1694683591
101332.2117142197
101332.2544055995
101332.3005369382
101332.3484562112
101332.3993498344
101332.4513669619
101332.5084947246
101332.5712150529
101332.6314164641
101332.6941002785
101332.7551664606
101332.8159781616
101332.8757930838
101332.9347454582
101332.9922507101
101333.0467753627
101333.0983760103
101333.1487793199
101333.1944644223
101333.2368414113
101333.2764141731
101333.3128678756
101333.347493352
101333.3802313403
101333.4085395168
101333.4366260885
101333.4630495109
101333.488392527
101333.5115912802
101333.5342962884
101333.5598912427
101333.5779796479
101333.5980145465
101333.6167894589
101333.6356507775
101333.6557513946
101333.6777861856
101333.7031855648
101333.7309033014
101333.7609999431
101333.7957727303
101333.8317743261
101333.870501628
101333.9119705613
101333.9548002443
101334.0007041085
101334.0490086565
101334.0972776692
101334.1479832472
101334.2012465044
101334.2564012957
101334.3140520111
101334.372504315
101334.4416013449
101334.5047304488
101334.5721451669
101334.6385236165
101334.7039327943
101334.7687287001
101334.8318986035
101334.8944846228
101334.9545334666
101335.0112038032
101335.0664263186
101335.1182000669
101335.1659880193
101335.2110047169
101335.252479759
101335.2925946972
101335.3306708133
101335.3657515766
101335.3980065192
101335.4299437396
101335.45962871
101335.4883297813
101335.5127763726
101335.5431578755
101335.5629881592
101335.5849234421
101335.6033802217
101335.6203297667
101335.6369725805
101335.6533838938
101335.6717115419
101335.6914720444
101335.7117849996
101335.7353076765
101335.7600547631
101335.7863166506
101335.815123524
101335.844481365
101335.8767882833
101335.9111182212
101335.9472673683
101335.9834132095
101336.023452083
101336.0657636783
101336.1110933221
101336.1571383078
101336.2122650961
101336.2649413714
101336.3217509075
101336.379031109
101336.4360466126
101336.4929961846
101336.5486926229
101336.6039474811
101336.6583583666
101336.7095512113
101336.7592293536
101336.8056521815
101336.8490135913
101336.8896227258
101336.9260567689
101336.9606300299
101336.9927828944
101337.0230672907
101337.0488927169
101337.0742580161
101337.0983619269
101337.1212062227
101337.1409006216
101337.1637238853
101337.1810258742
101337.1979128521
101337.2135682688
101337.2279968029
101337.2428536209
101337.2577096457
101337.2740867368
101337.2935907085
101337.3143753997
101337.3378349006
101337.3638901308
101337.39189168
101337.4226391584
101337.4548805191
101337.4893800659
101337.5263094499
101337.5653179631
101337.6049640548
101337.6465536986
101337.6914119236
101337.7387456591
101337.7878402141
101337.8415403632
101337.900212711
101337.9566619746
101338.0170688453
101338.0769531367
101338.1369706384
101338.1957139971
101338.2531118608
101338.3103656145
101338.3651343865
101338.4167912166
101338.4665812646
101338.5126868817
101338.5551517452
101338.5942921598
101338.6302878602
101338.664257083
101338.6957459191
101338.7247756645
101338.750357718
101338.7761217669
101338.8006205905
101338.8232822605
101338.8445958065
101338.8697118047
101338.8849702212
101338.9041741269
101338.9211684652
101338.938405985
101338.9557550493
101338.9736532585
101338.9945532643
101339.017897774
101339.0425789562
101339.0713385313
101339.1014020498
101339.1337736848
101339.1690791136
101339.2056125901
101339.2451331768
101339.2864674338
101339.3299600506
101339.3729610721
101339.419801433
101339.4691811108
101339.5210713645
101339.5734131755
101339.638327918
101339.6933283961
101339.7571096472
101339.819535359
101339.8822784972
101339.9443904892
101340.0047102742
101340.0641346886
101340.1225686447
101340.1770447743
101340.2300780054
101340.2785159182
101340.3236149851
101340.3658396891
101340.4036720459
101340.4396547082
101340.4730178611
101340.5043374211
101340.531892131
101340.5588993449
101340.5855045203
101340.6111711688
101340.6333235326
101340.664015855
101340.6802294223
101340.7030626243
101340.7232372228
101340.7434531345
101340.7641299903
101340.784759714
101340.8070172409
101340.8328305944
101340.859919659
101340.8905759052
101340.922146368
101340.9572252821
101340.9954952792
101341.0344239126
101341.0764280331
101341.1203651537
101341.1661388929
101341.2129259919
101341.261042586
101341.312550511
101341.3667527989
101341.4211077418
101341.4864417969
101341.5443600575
101341.6090450958
101341.6742803977
101341.7397109369
101341.8050210142
101341.8685359102
101341.9304366069
101341.9917077788
101342.0501830701
101342.1054652825
101342.157661116
101342.206261972
101342.2509795548
101342.2921143243
101342.3304904227
101342.3663864724
101342.3997507883
101342.4312299837
101342.4592576922
101342.4879044189
101342.5162648668
101342.5414890564
101342.5716929242
101342.5937026554
101342.6161585991
101342.6385467758
101342.6596688422
101342.6808172423
101342.70137055
101342.7220690276
101342.7449126524
101342.7701901587
101342.7964383481
101342.8255657676
101342.8561259529
101342.8887707325
101342.9239717123
101342.9605864958
101342.9996803597
101343.0405092443
101343.0835829165
101343.1261792727
101343.1728199966
101343.2225263619
101343.2743939363
101343.3297530377
101343.3908023032
101343.446794928
101343.5099896415
101343.5727755
101343.6359877452
101343.6982916232
101343.7586485467
101343.8179201833
101343.8763741651
101343.9311384346
101343.9838633764
101344.0322554319
101344.0764316141
101344.1184339245
101344.1558524403
101344.1910477692
101344.2235093366
101344.2540148416
101344.2807556381
101344.3071452996
101344.3332335144
101344.3591069181
101344.3818296779
101344.412345022
101344.4260801778
101344.4501399304
101344.470330909
101344.4913721381
101344.5123253958
101344.5330604944
101344.5553697774
101344.5806222794
101344.6075810111
101344.6379228106
101344.6678702671
101344.7012394615
101344.7394339324
101344.7769067397
101344.8175389638
101344.860028298
101344.9044572429
101344.9498403
101344.9967281934
101345.0470991897
101345.1012908422
101345.1551838586
101345.2230125177
101345.2737853554
101345.3399426708
101345.4039050241
101345.4691018629
101345.5337453626
101345.5966102701
101345.6579336221
101345.7180882205
101345.7760074399
101345.8314418393
101345.8811497523
101345.9280171123
101345.9734849504
101346.012924785
101346.0498629403
101346.0839079145
101346.1155554062
101346.1449600167
101346.1713090274
101346.198394737
101346.2262862219
101346.2498689626
101346.2859386354
101346.2965077032
101346.3234563637
101346.3459007745
101346.3688025859
101346.3915750927
101346.4141207488
101346.4369709103
101346.4622413622
101346.4899512696
101346.5199911381
101346.55109359
101346.58420264
101346.621598012
101346.6606297712
101346.7010309619
101346.7438620135
101346.7885211271
101346.8350863618
101346.881832522
101346.9320692577
101346.9858822664
101347.0411377572
101347.1069934332
101347.1596764751
101347.2230782037
101347.2889663198
101347.3549607096
101347.4210097956
101347.4858748271
101347.548517229
101347.6102848527
101347.6698800919
101347.7273189802
101347.7811408579
101347.8299766135
101347.875471498
101347.9189508677
101347.9570808798
101347.9928604201
101348.0258335183
101348.0569080851
101348.0844836574
101348.1116555339
101348.1389225484
101348.1665350841
101348.195011411
101348.2199389715
101348.2367480009
101348.2622917258
101348.2842233873
101348.3065760736
101348.3282591991
101348.3493958551
101348.3717411224
101348.3958116724
101348.422319423
101348.450976926
101348.4791020851
101348.5098440616
101348.5466169796
101348.581796505
101348.6199222351
101348.6598900114
101348.7021801746
101348.7447525518
101348.789591641
101348.8388819827
101348.8919292381
101348.9463865618
101349.0102725188
101349.0575056216
101349.1230557886
101349.1858863585
101349.2501684723
101349.3134524841
101349.3752235818
101349.4350255999
101349.4940587534
101349.5504662392
101349.6053015219
101349.6533606489
101349.6978110024
101349.7440945671
101349.7823321963
101349.817919864
101349.8504916754
101349.8809090101
101349.9078393479
101349.9332314724
101349.958497494
101349.9859569258
101350.0089925351
101350.0446221582
101350.0484295666
101350.0762047275
101350.0975115092
101350.1201108638
101350.1423163287
101350.1643452912
101350.186447743
101350.2114039053
101350.2374847553
101350.2679755412
101350.2961004588
101350.3277112403
101350.3666252103
101350.4039924785
101350.4436895333
101350.4854621318
101350.5294956307
101350.5746507285
101350.6213726373
101350.6704660934
101350.7260728649
101350.7803473429
101350.8524499053
101350.8916442408
101350.9605091342
101351.0245998512
101351.0908363788
101351.1566460868
101351.2208909466
101351.2832258033
101351.3442780217
101351.4029877382
101351.4599686395
101351.5120101702
101351.5597445842
101351.6058661726
101351.6482384777
101351.6857195439
101351.7202308615
101351.7518680124
101351.7813447838
101351.8071283843
101351.8332769066
101351.8605226313
101351.8873743047
101351.9219691475
101351.9320065522
101351.9574471154
101351.9812858711
101352.0056857547
101352.030228581
101352.0541196916
101352.07817819
101352.1030047855
101352.1305149077
101352.1595130779
101352.1911845559
101352.2227237482
101352.2577482172
101352.2987300247
101352.3383724491
101352.3807835968
101352.425026623
101352.4719686434
101352.5179173953
101352.5684764991
101352.6211393128
101352.6808314299
101352.7419050523
101352.8023237632
101352.8567119751
101352.9232348714
101352.9897369686
101353.0570796031
101353.1235067581
101353.1879444584
101353.2505490542
101353.3113694075
101353.3693190827
101353.4250929893
101353.4748470558
101353.5206332542
101353.5684327106
101353.6074981857
101353.6441172196
101353.6775545868
101353.7088028858
101353.7359249537
101353.7624736974
101353.7884282466
101353.8188441693
101353.8453225143
101353.8782279148
101353.8832866824
101353.9113073442
101353.9335582642
101353.9562908135
101353.9790617859
101354.0003864829
101354.0222472784
101354.0449896707
101354.0686160805
101354.0942175652
101354.1209589348
101354.1493388544
101354.1839851545
101354.2175466408
101354.2532356649
101354.2909103748
101354.3309701431
101354.3722393769
101354.4148363351
101354.4614493623
101354.5137971704
101354.5690159483
101354.633782925
101354.6705827999
101354.7367547285
101354.79715245
101354.8618619417
101354.9252085157
101354.9874583069
101355.0489474479
101355.107946391
101355.1645489347
101355.2169994255
101355.2667084863
101355.3132412519
101355.3560319263
101355.3978258513
101355.4344827548
101355.4677848542
101355.4981546944
101355.5260930046
101355.5550077047
101355.5870461544
101355.6038521166
101355.6430718397
101355.65825956
)
;

boundaryField
{
    inlet
    {
        type            calculated;
        value           uniform 101325.0000007053;
    }
    outlet
    {
        type            calculated;
        value           uniform 101355.65825956;
    }
    frontAndBack
    {
        type            empty;
    }
}


// ************************************************************************* //
