/*--------------------------------*- C++ -*----------------------------------*\
| =========                 |                                                 |
| \\      /  F ield         | OpenFOAM: The Open Source CFD Toolbox           |
|  \\    /   O peration     | Version:  v2012                                 |
|   \\  /    A nd           | Website:  www.openfoam.com                      |
|    \\/     M anipulation  |                                                 |
\*---------------------------------------------------------------------------*/
FoamFile
{
    version     2.0;
    format      ascii;
    class       volScalarField;
    location    "0.015";
    object      rho;
}
// * * * * * * * * * * * * * * * * * * * * * * * * * * * * * * * * * * * * * //

dimensions      [1 -3 0 0 0 0 0];


internalField   nonuniform List<scalar> 
1000
(
1.176280426901877
1.176306302471794
1.176244526173275
1.176181535374718
1.176115526325785
1.176057658321252
1.176010358291518
1.175974866406964
1.175952230885271
1.175945242565678
1.175945259409908
1.175951480415164
1.175967969543417
1.175994870111712
1.176030446544313
1.176072557808731
1.176119141107947
1.176168335694256
1.176218489791819
1.176268256048925
1.176316830153994
1.176364132233602
1.176410718876892
1.176457449594686
1.176505070182048
1.176553824557876
1.176603192762534
1.176652482826291
1.176700802350198
1.176748271054888
1.17679402620595
1.176831058721804
1.176863801634788
1.176890449027557
1.176910342551889
1.176924237826346
1.176929902556421
1.176925517558962
1.176912261761596
1.176887733929203
1.176850756529435
1.176801926049295
1.176743340127824
1.17667749518025
1.176606636861766
1.176532733589076
1.176457583030561
1.176382672758834
1.176309127145488
1.176237942835746
1.176170339073983
1.176108877435833
1.176058681026536
1.176024387951709
1.176006055742698
1.175999210770527
1.175996490285423
1.176000120172298
1.176010127959687
1.176027959124348
1.176054395826286
1.176089859692209
1.176133917219811
1.176184957642625
1.176240431323757
1.176297534060067
1.176353961313589
1.176408373178099
1.176460439677798
1.176510552015385
1.176559379088852
1.176607508634986
1.176655297534353
1.176703084521533
1.176750610105994
1.176796949397272
1.176842231542035
1.176881557495
1.176912858534694
1.176940030491104
1.176961166750541
1.176976510348397
1.176986554607244
1.176989200209283
1.176982904814956
1.176968572683554
1.176944065873363
1.176908597445605
1.17686249950881
1.176807229123929
1.17674490284425
1.176677917939127
1.176608732694794
1.176539628683922
1.176472369123076
1.17640809073069
1.176347528297802
1.176291296264533
1.176240673772365
1.176198302968488
1.176166460455998
1.176146128318859
1.176134899771944
1.176126061612185
1.17612185236172
1.176122611610511
1.176127515133948
1.176137913383626
1.176154855940051
1.176179118889529
1.176211170663722
1.176250999533459
1.176298009163015
1.176351051256968
1.176408600139792
1.176469041346285
1.176530938052644
1.176593166095994
1.176655039208151
1.17671623028974
1.176775974984141
1.176833177187012
1.176887310329732
1.176932212188565
1.176961950706453
1.176987994441465
1.177007875734121
1.177022273881884
1.177031629379306
1.17703431645115
1.177029218905616
1.177016668774981
1.176994402534427
1.176961538779641
1.176918337189008
1.176865890407244
1.176805817265732
1.176740203584587
1.176671485946571
1.176602114897904
1.176534084063106
1.176468657142637
1.176406495272418
1.176347995832015
1.176294221615264
1.176247989112833
1.176211853712906
1.176187066563638
1.176173173973725
1.176160824748124
1.176152364049886
1.176148608343338
1.176149171943822
1.176154240982882
1.176165675585253
1.176184700839037
1.176212154173079
1.17624855544032
1.176293833173997
1.176347162549409
1.176407079215287
1.176471760846908
1.176539279900437
1.17660784238955
1.176676103013701
1.176743136693229
1.176807987804099
1.176869629248072
1.176926518369827
1.176972992345531
1.177003822895011
1.177029853071948
1.177050732350743
1.177066162564239
1.177076396616928
1.177080477616267
1.177078001662815
1.177069347808489
1.177052505772719
1.177025903251277
1.176988997326115
1.176942088677162
1.176886045127837
1.176822351553266
1.176753132921248
1.176680904921442
1.17660807482168
1.176536532203117
1.176467727555978
1.17640300430472
1.176344159701731
1.176294387677042
1.176256586597545
1.176230677052577
1.176215617108558
1.176202202357898
1.176191928165003
1.176185816217301
1.176183451758136
1.176184632723209
1.176190513522426
1.176203049799371
1.176223536102399
1.176252978112657
1.176291946499726
1.176340400484121
1.176397675296426
1.176462492990088
1.176532997417126
1.176607027242674
1.17668264027842
1.176758133459642
1.17683173440423
1.176901753223242
1.176965326965087
1.177016236077316
1.177051664061597
1.177082467799914
1.177107441364566
1.177126662818988
1.177140535619225
1.177149252593581
1.177151636819659
1.177147378732984
1.177136911221297
1.17711804228123
1.177089145730459
1.177049499545554
1.176999416616826
1.176939943166453
1.176872612509632
1.176799408762973
1.176722625985317
1.176644485341394
1.176567128038042
1.176492890760881
1.176424712933538
1.176366852384398
1.176323023125407
1.176293019257813
1.176273359564372
1.176255800508731
1.176242524328944
1.176234467148232
1.176230988896488
1.176230731793314
1.176234006136348
1.176242659379811
1.176258038591825
1.176281172043677
1.17631304597771
1.176354386116219
1.17640529270907
1.17646507645487
1.176532501563394
1.176606117685981
1.176684411204524
1.176765521280385
1.176847036797182
1.176927113390193
1.177001758818617
1.177060892825101
1.177109708652893
1.177152860335
1.177189569083816
1.177220779509899
1.177246874677952
1.177267336079826
1.177281491998133
1.177289343689145
1.177288835243677
1.177278963953572
1.177259985523231
1.177230330209945
1.17718911835282
1.177135913011185
1.177071395913039
1.176997400406323
1.176916353012445
1.176830528365386
1.176742460144185
1.17665563158765
1.176573968119129
1.176502444491127
1.176446415954328
1.176406039546518
1.176372273697343
1.176345090498879
1.176324799046757
1.176309669977589
1.176298786613659
1.176292816583485
1.176292036750197
1.176296086652955
1.176305786320967
1.176322920353557
1.176348898261814
1.176384776404984
1.176431170597956
1.176488121228162
1.176555090790226
1.176631111688635
1.176714939389025
1.176804411173157
1.176896088967449
1.176988028352812
1.177074493947475
1.177143584910372
1.177206577893132
1.177261352650707
1.177308310211063
1.177348573689813
1.177382626118974
1.177410280764021
1.17743100982723
1.177444571912508
1.177451588271552
1.177449532680683
1.17743719932941
1.17741493603854
1.177381197321463
1.177335316615496
1.17727687297775
1.177206490522635
1.177125727810362
1.177036393525688
1.176941248664565
1.176844639424982
1.176750619482634
1.176665310331419
1.176596833080801
1.176540358566285
1.176490918678057
1.176450442099064
1.176418013451041
1.176392425730404
1.176372851134653
1.176358767919254
1.176349322266127
1.176346583143988
1.176351881610289
1.176364476083665
1.17638579522385
1.176417045092342
1.176459508147383
1.176513876851844
1.176580133536294
1.176657714895703
1.176745639935688
1.176841662449893
1.176941601289258
1.177042881019331
1.177139109594778
1.177219040208451
1.177293446710039
1.177358352943348
1.177413947948917
1.177460956753576
1.177499901125401
1.17753121358317
1.177555366107889
1.177572041509094
1.177581941109292
1.177583175039314
1.177574475554349
1.177555951196168
1.177526240641144
1.177485270404975
1.17743269775162
1.177368124069388
1.177291397020868
1.177203381698646
1.177106735070654
1.177006143799921
1.1769058192924
1.176811064662932
1.176732023170958
1.176663532580815
1.176602387026096
1.176550503280265
1.176507422324869
1.176472166087111
1.176443817109208
1.176421678656942
1.176405921236306
1.176396208599778
1.17639441002175
1.176402303276974
1.176420128359368
1.17644884602329
1.17648876852811
1.176540611458994
1.176605138503344
1.176682589696078
1.176772229009668
1.176871769849915
1.176976934747529
1.177084914956832
1.177189355869792
1.177278620125155
1.177361904871147
1.177435377477175
1.177498239946051
1.177550900176606
1.177594174271162
1.177628875071301
1.177655555414565
1.177674275287668
1.177685296989488
1.177688509268316
1.177681945329049
1.177665090715234
1.177638012526865
1.177600001487639
1.177550861816459
1.177490114739409
1.177417485900407
1.177333480510012
1.177239437496755
1.177138552949413
1.177035954292147
1.176935886636732
1.176846864420389
1.176771355340405
1.176701358354556
1.176640514117473
1.176588803193699
1.176545547752096
1.176509870337516
1.176481205804643
1.176459448599496
1.176445510265821
1.176438222384063
1.176441544032119
1.176456496140571
1.176482252986642
1.176521025225945
1.176572686384715
1.176637396209161
1.17671526749823
1.176805952794549
1.176907697713537
1.177016737410327
1.177130288932154
1.177242086919746
1.177340393685796
1.17743147747587
1.177512723580826
1.177582481188636
1.177640963404197
1.177688898650208
1.177727097079209
1.177756289729937
1.1777772331026
1.177789905984766
1.177795869926515
1.177791803645701
1.177777170342213
1.177753283309827
1.17771790132822
1.177670795213658
1.177611785264703
1.177541236511239
1.177459511795772
1.177366867493896
1.17726531249867
1.17715985825265
1.177054342839356
1.176955698360735
1.176873416660287
1.176796052458904
1.176728797231261
1.176671954909502
1.176625167742539
1.176587603531797
1.176558458257851
1.176537253216884
1.176524268015734
1.176517958518793
1.176521263579442
1.176534991248501
1.176558659622355
1.176594343392622
1.176641884973541
1.17670068310725
1.176769963207092
1.176849024782475
1.176936900867521
1.177031289233013
1.177127926955491
1.177222281797609
1.177309954971076
1.177385332207245
1.177445861440906
1.177493786085356
1.177534051726277
1.177563263963394
1.177581906399825
1.177592702379027
1.177596562076309
1.1775943729389
1.177587836984902
1.177576312598963
1.177559125328057
1.177535282883805
1.177503607416583
1.177463032569323
1.17741269501167
1.177351861552216
1.17728022131057
1.177198365019741
1.177107744617189
1.177011349162855
1.176913558740801
1.176818240381413
1.17673368527357
1.176667130655964
1.17660632281211
1.176555150193696
1.176513131592495
1.176479594332583
1.176454040169364
1.176435842428588
1.176424604013366
1.17641880669647
1.17642016596391
1.176429867610484
1.176448201659774
1.176476877492102
1.176516438687506
1.176567822170647
1.176631771397703
1.17670823374557
1.176796056622706
1.176893095306026
1.176996171833088
1.177102301861147
1.177206148642507
1.177298097366696
1.177376134733891
1.177445899717877
1.177503493769252
1.177549185604044
1.177584119480954
1.177609437229149
1.177625761316417
1.177634496076152
1.177635784043984
1.177629768305988
1.177617065021516
1.177596892811571
1.17756893641577
1.177532407257416
1.177486222375222
1.177429373960884
1.17736148512015
1.17728283982843
1.177194158179293
1.177097846477877
1.176998700642062
1.176900199631121
1.176808578418911
1.176734803077115
1.17666794557076
1.176609962034271
1.176561589886924
1.176522306747063
1.176491478453662
1.176468552526618
1.176452937913873
1.17644417604872
1.176441468917565
1.176447191970904
1.176462523894551
1.176487464542004
1.176523470983699
1.176571152884183
1.176631244180218
1.176703954696324
1.176788548000235
1.176883641749497
1.176986792289991
1.177094635524778
1.177202447973437
1.177301439779761
1.177385801496508
1.17746223103453
1.177527178855091
1.177580097478639
1.177621507874573
1.177652195933206
1.17767313263804
1.177685231657252
1.177689818096508
1.17768640472802
1.177675474879379
1.17765767514914
1.177631792295873
1.177597189821391
1.177553205170241
1.177499453973339
1.177435492201132
1.177360814584471
1.177275534157308
1.177181425592474
1.177082451161623
1.176982583619491
1.176886517271006
1.176804943288279
1.176733923770454
1.176669977685236
1.17661531513263
1.176569939193073
1.176533410409162
1.176505272456718
1.176485049535725
1.176472517348427
1.176466624268983
1.176468851989816
1.176480527271969
1.176502269795816
1.176535569512404
1.176581028404783
1.176638896988196
1.176709239229016
1.176791647851328
1.176885448319174
1.176988724012146
1.177097887926954
1.177208743449193
1.177313652509806
1.177404671666174
1.177486588627814
1.177557689042289
1.177616387148361
1.177663022085637
1.177698263282704
1.177722995223833
1.177737914601275
1.177745167471006
1.177744015944241
1.177734887922834
1.177719028387182
1.177694804826866
1.177661994739376
1.177620198654418
1.177569090411043
1.177508051286941
1.177436519419372
1.177354605253752
1.177263280293831
1.177165274617801
1.177065094012414
1.176966244951086
1.176876043774429
1.176801711358784
1.176732060717726
1.176671943114456
1.176621383064058
1.176580151974308
1.176547813959889
1.176523836055698
1.176507660271353
1.17649926348645
1.176498286576025
1.176507288906719
1.176527413822151
1.176558384424405
1.176601198482921
1.176655821069068
1.17672238833348
1.176800678483048
1.176889883887912
1.176988003634329
1.177091607198445
1.177197038094784
1.177299279497571
1.177390805400461
1.177468411642239
1.177533847835223
1.177589122204922
1.177631233260502
1.177661024687928
1.177679970086139
1.177689764127506
1.177691095364012
1.17768496628814
1.17767278805498
1.177654305908587
1.177629661010772
1.177598541600672
1.17756021617361
1.177513779198288
1.17745847347406
1.177393785626409
1.177319387364819
1.1772354486178
1.177143670413754
1.177047862754382
1.176951364976865
1.176858786022143
1.176781213961669
1.176713235749282
1.176652788895419
1.176601727922456
1.176560014521436
1.176527365161927
1.17650345973818
1.176487652902036
1.176479248519908
1.176477317476259
1.176483710283939
1.176499483503983
1.176524812630634
1.17656108026225
1.176608931154528
1.176669070103451
1.176741662493065
1.176825975004895
1.17692066410453
1.177023424075422
1.177131346984579
1.177239936424411
1.177340873902438
1.177428267596768
1.177505523970442
1.1775713363038
1.177624094093852
1.177664467642917
1.177693355427345
1.177711533581088
1.177720330591603
1.177720125424247
1.177711982052238
1.177697270121094
1.177675574658825
1.177646787281722
1.177610327121319
1.177565732129158
1.177512651744741
1.177450580039706
1.177378989429992
1.177297955736725
1.177208538429131
1.177113526917715
1.177016967489516
1.176922150916202
1.176836741037996
1.176766328502607
1.176700978050587
1.176645104720455
1.176598647369701
1.176561370823622
1.176532965379777
1.176513039129396
1.176501184751364
1.176496040261736
1.176499241868359
1.176511674018032
1.176533384230563
1.176566168965365
1.176610782438732
1.176667609093854
1.176736718026865
1.176817668659196
1.176909732095992
1.177011013791263
1.177118161382399
1.177227337679072
1.177331883533876
1.177424671054711
1.177505081701838
1.177575130088733
1.17763209937516
1.177676128337177
1.177707972353257
1.177728397639392
1.177739153069617
1.177740649127035
1.177733878311014
1.177720641005009
1.177700272549254
1.177672870374685
1.177638205652739
1.177595918970887
1.177545459620497
1.177486209965867
1.177417817863117
1.1773403613556
1.177254315901122
1.177161649677195
1.177066325360197
1.176970977058464
1.176880691970001
1.176806346149262
1.176738321074956
1.176678627145735
1.176628476027446
1.176587825002471
1.176556357295599
1.17653368351655
1.176519383294624
1.176512547588971
1.176513395803402
1.176522918126048
1.176541892309936
1.17657127859275
1.176611772003036
1.176663813280964
1.176727744204901
1.176803369344902
1.176889660480099
1.176984754240515
1.177085813843333
1.177189807601724
1.17729201052
1.177385008317491
1.177464899755297
1.177532037810279
1.177588009398318
1.177630913143151
1.1776609090544
1.177680139594069
1.177688381645146
1.177686602072329
1.177678160324121
1.177662973896014
1.17764152713913
1.177614069192576
1.177580562187777
1.177540558668416
1.177493474940323
1.177438806439587
1.177376093485516
1.177305008150224
1.177225742369451
1.177139373441603
1.177048589475786
1.176957000226911
1.176867324632506
1.176787229361837
1.176721405421125
1.176660840681843
1.176609706731402
1.176568196543299
1.17653641190718
1.176514190652142
1.176500897371302
1.176495092471306
1.176496741792833
1.176505626915231
1.176521641396074
1.176546136862371
1.176580236944231
1.176625289801779
1.176682287254228
1.176751438662438
1.176832062117465
1.176923200838783
1.177022935689806
1.177128367271181
1.177235544814091
1.177337181907517
1.177427007848666
1.177505706678509
1.177573052785059
1.177626736954903
1.177667301496857
1.177695625323588
1.177713368074144
1.177720082192016
1.177716715880239
1.17770657833029
1.177689349136299
1.177665422414796
1.177634712408044
1.177597008802244
1.177551942732593
1.177499046002637
1.177437773984538
1.177367844947328
1.17728959763082
1.177203972347051
1.177113249885837
1.177021047969075
1.176929651135306
1.176844352358834
1.17677502029641
1.176711053682052
1.176655420047394
1.176609260450746
1.176572753115828
1.176545770517583
1.176528015377597
1.176518300714279
1.176516198706152
1.176521631422441
1.176534360961014
1.176555470696952
1.176586111669601
1.176627606525815
1.176681029493563
1.176746812158996
1.176824626606223
1.176913646162737
1.177012027450365
1.177116660788246
1.177224395483448
1.177329148300863
1.17742375682267
1.177506511094426
1.177578181935288
1.177636258105454
1.177680746175558
1.177712553186921
1.177733067593582
1.177742051157622
1.177740687151755
1.177732108876383
1.177716344761611
1.177694044413678
1.177665394064672
1.177630272542061
1.177588014564302
1.177537772919674
1.177479018912222
1.177411710981245
1.177336083431313
1.17725260557764
1.17716298857302
1.177070679234196
1.17697855284665
1.176890584738378
1.176815345785793
1.176750644228201
1.176692164397599
1.176642653294966
1.176602391667146
1.17657133362152
1.176549538626166
1.176536709614627
1.176532064743389
1.176535736656634
1.176547217042252
1.176566288829151
1.176593985339229
1.176631359377549
1.176679627832707
1.176739659768752
1.176811505301171
1.176894076037954
1.176985536778638
1.177083067355619
1.177183499149588
1.17728236314531
1.177373168100947
1.177451715553832
1.177517988241851
1.177571883913644
1.177614697871491
1.177644056932375
1.17766181356432
1.17766799432075
1.177662821422698
1.177650245231965
1.177630500561242
1.177604829978701
1.177574198956723
1.177538784837548
1.177498106316634
1.177451393791302
1.177397934078994
1.177337219222133
1.177269114312213
1.177193973530583
1.17711260650905
1.17702711830637
1.176940797358725
1.17685524741253
1.176775586220863
1.176711549771873
1.176653912810701
1.17660497952266
1.176565323362212
1.176533776931927
1.176509053054521
1.176490694433929
1.176480370046272
1.176479648616332
1.176491368446881
1.176515742244157
1.176547280896351
1.176580883604522
1.176616863231984
1.176664795231386
1.17673686783457
1.176836321717534
1.176961880760808
1.17709804404084
1.177306917334525
)
;

boundaryField
{
    inlet
    {
        type            calculated;
        value           uniform 1.176411716172193;
    }
    outlet
    {
        type            calculated;
        value           uniform 1.177468748683871;
    }
    frontAndBack
    {
        type            empty;
    }
}


// ************************************************************************* //
