/*--------------------------------*- C++ -*----------------------------------*\
| =========                 |                                                 |
| \\      /  F ield         | OpenFOAM: The Open Source CFD Toolbox           |
|  \\    /   O peration     | Version:  v2012                                 |
|   \\  /    A nd           | Website:  www.openfoam.com                      |
|    \\/     M anipulation  |                                                 |
\*---------------------------------------------------------------------------*/
FoamFile
{
    version     2.0;
    format      ascii;
    class       volScalarField;
    location    "0.015";
    object      T;
}
// * * * * * * * * * * * * * * * * * * * * * * * * * * * * * * * * * * * * * //

dimensions      [0 0 0 1 0 0 0];


internalField   nonuniform List<scalar> 
1000
(
299.9929971523155
299.9861505745467
299.9755571255555
299.9699479777041
299.9649705992661
299.9604464141531
299.9565289003018
299.9535703741153
299.9518582109317
299.9515894006649
299.9520654394465
299.9531932694418
299.9550891004308
299.9579225114624
299.9616131909301
299.9659488335328
299.9707126644512
299.9757094033953
299.9807682768965
299.9857564271425
299.9906021726127
299.9953100712798
299.9999492833104
300.0046177546727
300.0093983795699
300.0143190379507
300.0193268144815
300.0243500770578
300.0292960531189
300.0341734332897
300.0388874066024
300.0427143981741
300.0461015184256
300.0488613387359
300.0509229083902
300.0523617667432
300.0529494899814
300.0525050310266
300.0511477098946
300.048629684126
300.0448380173764
300.0398374985623
300.0338425105101
300.02710843087
300.0198658296261
300.0123168965575
300.0046456303536
299.9970033566657
299.989503510735
299.9822461655753
299.9753542545425
299.9690881164726
299.9639700304245
299.9604732153405
299.9586036885006
299.9579049938394
299.9576261395891
299.9579939993481
299.9590119358172
299.9608291763558
299.9635256741261
299.967144236545
299.9716404867663
299.97684993897
299.9825122600324
299.9883410977038
299.9941010676091
299.9996552337946
300.0049697665947
300.010084495427
300.0150676488042
300.0199792201943
300.0248556807214
300.0297316716996
300.0345807933671
300.0393087498098
300.0439287964332
300.0479411223795
300.0511347131701
300.0539070796156
300.056063671303
300.0576292548079
300.0586541599302
300.0589241766232
300.0582819818597
300.0568198185078
300.0543194731268
300.0507006508739
300.045997201885
300.0403577253921
300.0339981160499
300.0271629335951
300.0201029927834
300.0130511071055
300.0061872197664
299.9996273558236
299.9934465309221
299.9877074845705
299.982540804722
299.9782162101372
299.9749661281791
299.9728908536335
299.9717447638535
299.9708426538479
299.9704130145733
299.9704905144733
299.9709910257085
299.9720523856392
299.9737817150404
299.9762582085644
299.9795296480027
299.9835947964432
299.988392742415
299.9938062398889
299.9996795354207
300.0058478286729
300.0121644659618
300.0185147175252
300.0248285521753
300.031072595926
300.0371688610166
300.0430055212645
300.0485288719127
300.053110205641
300.0561443687848
300.0588015271891
300.0608299297782
300.0622988980735
300.0632533874165
300.0635275377179
300.06300747836
300.0617270767639
300.0594553751267
300.0561024135515
300.0516946332838
300.0463434492967
300.0402139637566
300.0335189399098
300.0265069567283
300.0194280515646
300.0124856685364
300.0058087873402
299.9994649059151
299.993494609039
299.9880063973278
299.9832877721016
299.9795996107336
299.9770696730985
299.9756516962456
299.9743912390859
299.9735276723844
299.9731443351828
299.9732018684848
299.9737192722837
299.9748863998886
299.9768282822058
299.9796303689114
299.98334568095
299.9879668728688
299.9934097012973
299.9995246541077
300.0061256976277
300.0130160808964
300.0200127076379
300.026978291486
300.0338184419073
300.0404356625223
300.0467251764671
300.0525296162475
300.0572712618494
300.0604167821654
300.0630725070996
300.0652026903019
300.0667769266906
300.0678210315106
300.0682373867288
300.0679847979118
300.067101935869
300.0653836908127
300.0626696290535
300.0589043191819
300.0541183788893
300.0484002793561
300.0419014492702
300.0348386413217
300.0274685038549
300.020036657577
300.0127359284431
300.0057143566839
299.9991090734105
299.9931035420595
299.9880237921082
299.9841657165916
299.9815212852438
299.9799841993591
299.9786150231531
299.9775663848056
299.9769425682331
299.9767012428134
299.9768217915711
299.9774220435864
299.9787015971722
299.9807925691803
299.9837975766948
299.9877748205541
299.9927200802684
299.9985654404229
300.0051804046357
300.0123754789489
300.0199300482064
300.0276458904503
300.0353492112223
300.0428591676823
300.0500033589373
300.0564897201709
300.0616837684727
300.0652982681108
300.0684409374894
300.0709887677688
300.072949743206
300.0743650385319
300.0752543382481
300.0754975813164
300.0750631963228
300.0739953422475
300.072070375692
300.0691223698242
300.0650776165749
300.0599679702568
300.0539000928566
300.0470303447997
300.0395610960651
300.0317263682709
300.0237527785332
300.0158588166217
300.0082829519347
300.0013251988349
299.9954201638665
299.9909469971137
299.9878847844319
299.985878287337
299.9840861712779
299.9827311706081
299.9819088368083
299.981553842375
299.9815276139444
299.9818618259439
299.9827450317543
299.9843147137353
299.9866758040212
299.9899289290211
299.9941481098077
299.9993435158
300.0054447262589
300.0123255480178
300.0198379008187
300.0278272646396
300.0361037097563
300.0444211877267
300.0525915148386
300.060207390066
300.0662404623737
300.071220707619
300.0756229945785
300.0793679084368
300.082551847595
300.0852139159849
300.0873012402776
300.0887453129639
300.089546271202
300.0894944186971
300.0884874717578
300.0865514813592
300.0835262848182
300.0793220966
300.0738942668643
300.0673122464117
300.059762970352
300.0514939098441
300.0427370711359
300.0337509262893
300.0248908855087
300.0165575416832
300.0092586325352
300.0035407975089
299.9994202038028
299.9959741867945
299.9931999308759
299.9911290109579
299.9895849489168
299.9884741968706
299.9878648984613
299.9877853200368
299.9881986779436
299.989188658164
299.9909373874185
299.993588701145
299.9972503696525
300.0019851817586
300.0077971824673
300.0146314277701
300.0223890780864
300.0309430388472
300.0400725388988
300.0494267142374
300.05880715483
300.0676287061131
300.0746773454611
300.0811036633841
300.0866914277752
300.0914816104882
300.0955888336672
300.0990624115672
300.1018833299331
300.1039977793608
300.1053811563334
300.1060968412954
300.1058871828122
300.1046291835158
300.1023582811429
300.0989167896992
300.0942366580895
300.0882748603661
300.0810949509034
300.0728558033871
300.0637418213961
300.054034590983
300.044177488113
300.0345841205697
300.0258791649911
300.0188914642319
300.0131283982156
300.0080830636612
300.0039523412037
300.0006428679062
299.9980315021972
299.9960337871069
299.9945964924243
299.9936324924197
299.9933529491292
299.9938937209313
299.995179116699
299.997354916404
300.0005441747647
300.0048777214737
300.0104261460245
300.0171875443945
300.025104316174
300.034076232711
300.04387397162
300.0540708222828
300.0644039754392
300.0742212818325
300.0823754882829
300.0899658574112
300.0965868562543
300.1022578553668
300.1070528886833
300.1110252400431
300.1142190745105
300.1166825696532
300.1183834015393
300.119393123115
300.119518987158
300.118631701689
300.116742320424
300.1137119452252
300.1095330255708
300.1041705332249
300.0975837150921
300.0897569130714
300.080778239769
300.0709186112922
300.060656060636
300.0504202227336
300.0407521918692
300.0326870462987
300.0256982283005
300.0194587014302
300.0141641330059
300.0097677536264
300.0061698088521
300.0032767121064
300.0010173890668
299.9994092635438
299.9984180358495
299.9982344866103
299.9990400628065
300.000859242044
300.0037900288939
300.0078642358368
300.013154818602
300.0197396132573
300.0276429890448
300.0367896956882
300.0469462673718
300.0576761439528
300.0686926917917
300.0793475725535
300.0884537048918
300.0969494873046
300.1044440537809
300.110856110457
300.1162273646984
300.1206411399927
300.1241804048285
300.1269015913909
300.1288108515683
300.1299349588567
300.1302625804121
300.129593144671
300.1278741674603
300.1251124447128
300.1212355832154
300.1162235517008
300.1100274339172
300.1026191380222
300.0940500712646
300.0844566826876
300.0741648917534
300.0636977158258
300.0534882489233
300.0444052588125
300.0367007055215
300.0295583198382
300.0233496612348
300.018072828646
300.0136587252919
300.0100178650359
300.0070926169718
300.0048722415785
300.0034497902246
300.0027060336936
300.0030450353009
300.0045709807346
300.0071995613147
300.011156318246
300.0164282607324
300.0230315888544
300.0309776872091
300.0402309520844
300.0506122139948
300.0617372025731
300.0733218926509
300.0847270379866
300.0947553316846
300.1040463771942
300.112333572022
300.1194486529278
300.1254134770397
300.1303024405091
300.1341982499898
300.1371755213219
300.1393114467252
300.14060388645
300.1412121098558
300.1407974285697
300.1393050880973
300.1368689783286
300.133260475803
300.128456144289
300.1224375728243
300.1152418869412
300.1069059768699
300.0974558642905
300.0870963327612
300.0763385025137
300.0655738838847
300.055509714228
300.0471145684343
300.0392208398414
300.0323583160394
300.0265581078277
300.0217838016613
300.017950550172
300.014976360416
300.0128124204554
300.011487291001
300.0108434072663
300.0111806981171
300.0125816230354
300.0149969709753
300.0186384049571
300.0234897703301
300.0294896282826
300.0365588444295
300.0446258403549
300.0535918494014
300.0632218818296
300.0730809536694
300.082706682978
300.0916503765562
300.0993394303786
300.1055136724046
300.1104020630429
300.1145091271326
300.1174886980398
300.1193901538766
300.1204912963153
300.1208849704508
300.1206617010703
300.1199950820329
300.118819660613
300.1170666396425
300.1146347932525
300.1114039510489
300.1072652976221
300.102130710179
300.0959253233852
300.0886173318779
300.0802668904068
300.0710220081708
300.0611875266778
300.0512102612164
300.0414847545696
300.0328570447632
300.0260657886726
300.019860741127
300.014638759301
300.0103508068473
300.006928297203
300.0043204297768
300.0024632837253
300.0013163560439
300.0007247134632
300.0008634422498
300.0018535601602
300.0037246432705
300.0066511037492
300.0106883627808
300.0159319638873
300.0224576789237
300.0302600172189
300.0392212345991
300.0491223626151
300.0596390407312
300.0704667153759
300.0810608940533
300.0904407990736
300.0984012432554
300.1055175766756
300.1113922332055
300.1160527259999
300.1196158488746
300.1221981213002
300.1238630714227
300.1247539565482
300.1248853246933
300.1242717784577
300.1229761533067
300.1209187268138
300.1180673140075
300.1143414469362
300.109630613715
300.1038319450365
300.0969069046816
300.0888843546564
300.0798376384033
300.0700121199994
300.0598969953757
300.0498471803983
300.0404988466326
300.0329710532699
300.0261488976798
300.0202320601889
300.0152958653898
300.0112870766637
300.0081410350685
300.0058014021732
300.004207888728
300.0033137117379
300.0030374389161
300.0036215125984
300.0051862105126
300.0077314757811
300.0114059543441
300.0162717980211
300.0224038168359
300.0298233099775
300.0384550009861
300.0481577065735
300.0586819702997
300.0696844675571
300.0806832441153
300.090781632464
300.0993871817137
300.1071832778421
300.1138079607375
300.1192055002761
300.123429131763
300.1265590860223
300.1286944465056
300.1299284289304
300.1303961977201
300.1300480813588
300.1289333695114
300.1271179800093
300.1244781433509
300.1209489060989
300.1164626422969
300.1109800814964
300.1044558527524
300.096838323156
300.0881389139001
300.0785385438335
300.0684413260059
300.0582525121946
300.0484510365698
300.0401278104874
300.0328812145432
300.0263561497962
300.0207782078642
300.0161477796418
300.0124200863414
300.0095486129949
300.007484843035
300.0062059119939
300.0056045101907
300.0058318613259
300.007023368029
300.0092422417123
300.0126404806951
300.0172794470615
300.0231846197148
300.0303624196437
300.0387711625953
300.0483418859693
300.0588788958813
300.070016106023
300.0813252948641
300.092027262027
300.1013118443149
300.1096675866742
300.1169197356081
300.1229066663745
300.1276630810638
300.1312573431406
300.1337797232109
300.1353013164064
300.1360410133823
300.135923582125
300.1349926627564
300.1333752021775
300.1309046798094
300.1275583667158
300.1232954736022
300.1180826733852
300.1118567839886
300.1045604066866
300.0962047049641
300.0868886683074
300.0768906866853
300.0666703499573
300.0565853720497
300.0473822436919
300.0397978759696
300.0326909496349
300.0265565433216
300.0213972411655
300.0171897926472
300.0138897792129
300.0114428597806
300.0097921230417
300.0089352262684
300.0088355319194
300.009754242373
300.0118080134504
300.0149685354789
300.0193375626085
300.0249114499991
300.0317039939222
300.0396924484276
300.0487942821404
300.0588052163732
300.0693751439786
300.0801309623035
300.0905608640956
300.0998972041095
300.1078133116363
300.1144877983265
300.1201256046502
300.1244206881077
300.1274591833987
300.1293914405188
300.1303903360347
300.1305261174003
300.1299010333145
300.1286589930065
300.1267739942155
300.124260417102
300.1210864376907
300.117177407695
300.1124409154878
300.1067996662387
300.1002012242051
300.0926120209574
300.0840492963132
300.0746864732304
300.0649121501233
300.0550669718223
300.0456211715488
300.037706175588
300.0307698333597
300.0246017774516
300.0193913152181
300.0151346104942
300.0118027936142
300.0093632481015
300.0077501491201
300.0068924714797
300.0066954058727
300.0073478176013
300.0089575172375
300.0115423721994
300.0152434254808
300.0201264088374
300.0262631576579
300.0336704372239
300.0422732930863
300.0519345093668
300.0624187138696
300.0734291281595
300.0845069616379
300.0948036366748
300.103718295418
300.1115985719842
300.1183112963395
300.1236923214274
300.1278101193716
300.130756403356
300.1326103800808
300.1335075703038
300.1334866568159
300.1326561547564
300.1311557229282
300.1289430158219
300.1260069542849
300.1222882611151
300.1177397630231
300.1123256449071
300.1059942346659
300.0986916401554
300.0904255069319
300.0813038140529
300.0716110260381
300.0617598794004
300.052086094904
300.0433716409318
300.0361871040508
300.0295188518598
300.0238174552815
300.0190767512557
300.0152728106684
300.012374085531
300.010340623831
300.009130884629
300.0086058867643
300.0089326215859
300.0102013455382
300.0124168781432
300.0157625006298
300.0203151142263
300.0261138671928
300.0331657065877
300.0414255550037
300.0508189115506
300.0611523461466
300.0720837211273
300.0832214865005
300.0938863026018
300.103351182164
300.1115532040276
300.1186979901031
300.1245085496108
300.1289991497325
300.1322469174874
300.1343300567241
300.1354269751936
300.1355795625399
300.1348890470093
300.1335390280628
300.1314616921952
300.1286669527234
300.1251314394137
300.1208184509949
300.1156717633117
300.109628314766
300.1026521131509
300.0947510378552
300.0859734997649
300.0765201813272
300.066795267874
300.0570674662666
300.0478558072753
300.0402700935867
300.033329060906
300.0272379141817
300.0221203655879
300.0179721304546
300.014760946552
300.012447126196
300.0109878028859
300.0102902230681
300.0103767894695
300.0113485578406
300.0132848756633
300.0162836901048
300.0204158681493
300.025726312875
300.0322498088993
300.0399663045441
300.0487707655981
300.0584729558985
300.0687833513664
300.0793925878263
300.0898186072149
300.0993051311826
300.1074543653885
300.1143024642449
300.1200114033825
300.1243873466233
300.1274467003328
300.1294080436713
300.130248655034
300.130067176564
300.1292062334437
300.127657382516
300.1254700052863
300.1226694936727
300.119251956973
300.115171718412
300.1103691963785
300.1047928730276
300.098395802101
300.0911444682749
300.0830583766729
300.074247344316
300.0649855279516
300.0556411575741
300.0464916304927
300.0383192244049
300.0316027338116
300.0254226836752
300.0202048075546
300.0159688690587
300.0127253221025
300.0104576684346
300.0091010942833
300.0085087014912
300.0086770280146
300.0095837835466
300.0112180748665
300.0137178082884
300.0171976140174
300.0217950139833
300.0276111390353
300.0346672498053
300.0428936469977
300.052192585323
300.0623681378602
300.0731243915697
300.0840582103323
300.0944262748172
300.1035890488471
300.1116164665362
300.1184856395093
300.1239611556346
300.1280984329739
300.1309871936327
300.1327967646076
300.1334815318517
300.1331382283831
300.1321043439961
300.130347170083
300.1279068802395
300.1247747048943
300.1209291594353
300.1163325768303
300.1109371491152
300.1046872630931
300.0975541113144
300.0895721700289
300.0808372792533
300.0715820324719
300.062175451558
300.0528505970344
300.0441475175795
300.0370732562949
300.0305462406786
300.0248693341265
300.0201590417299
300.0164336196992
300.0136801126475
300.0118682266182
300.0108768557706
300.0106623518074
300.0112167728825
300.0125158319837
300.0146700569017
300.017796872236
300.0220311992588
300.0274825838989
300.0341949677439
300.0421347731423
300.0512175246088
300.0612550159521
300.0719298715131
300.0829205774191
300.0936065229463
300.1032571677529
300.1116982481561
300.1190085218316
300.1249319766957
300.1294693993619
300.1327133891191
300.1348056191652
300.1357218303165
300.1355827376173
300.1347078936068
300.1331001694656
300.1308257952918
300.1279037415458
300.1243216183429
300.1200115312779
300.1148870180665
300.1088940915095
300.1020284433176
300.094313900168
300.0857982582825
300.0766559949518
300.0672386781923
300.057839620843
300.0488644132156
300.0411876240479
300.0345857659167
300.0286185613512
300.0235663736448
300.0194579201143
300.0162885790628
300.0140644651063
300.0127552913001
300.0122812883049
300.0126560102771
300.0138275738861
300.015773797457
300.018600102247
300.0224138907669
300.0273392939239
300.033464927876
300.0407958186051
300.0492208012065
300.0585525034461
300.0685030637571
300.0787490900365
300.0888345448579
300.0980971877689
300.1061088210813
300.112867884326
300.1183642774747
300.122730474775
300.1257246590686
300.1275359252264
300.1281667310283
300.1276402449818
300.1263601232757
300.1243505287294
300.1217389126087
300.1186242254291
300.1150237131008
300.1108851203702
300.1061240455156
300.1006600318499
300.0944338961357
300.0874264270607
300.0796705113264
300.0712501924626
300.0623940966155
300.0534705053518
300.0446897457843
300.0366169721524
300.0302648274699
300.0246956926804
300.0201306263704
300.0165926995293
300.0139359725097
300.012071398347
300.0110683973826
300.0108320760973
300.0116798874524
300.0142334170578
300.0182029214411
300.0228440282323
300.0274866197446
300.0314640043787
300.0343822647597
300.0363566966531
300.0377435536275
300.0394094041605
300.0399293895905
300.041237679053
)
;

boundaryField
{
    inlet
    {
        type            fixedValue;
        value           uniform 300;
    }
    outlet
    {
        type            characteristicVelocityInletOutletTemperature;
        UName           U;
        pName           p;
        TName           T;
        phiName         phi;
        rhoName         rho;
        U               (0 0 0);
        p               101325;
        T               300;
        value           uniform 300;
    }
    frontAndBack
    {
        type            empty;
    }
}


// ************************************************************************* //
