/*--------------------------------*- C++ -*----------------------------------*\
| =========                 |                                                 |
| \\      /  F ield         | OpenFOAM: The Open Source CFD Toolbox           |
|  \\    /   O peration     | Version:  v2012                                 |
|   \\  /    A nd           | Website:  www.openfoam.com                      |
|    \\/     M anipulation  |                                                 |
\*---------------------------------------------------------------------------*/
FoamFile
{
    version     2.0;
    format      ascii;
    class       volVectorField;
    location    "0.015";
    object      U;
}
// * * * * * * * * * * * * * * * * * * * * * * * * * * * * * * * * * * * * * //

dimensions      [0 1 -1 0 0 0 0];


internalField   nonuniform List<vector> 
1000
(
(-0.06668522224680717 0 0)
(-0.09702133401989903 0 0)
(-0.106681229622105 0 0)
(-0.1221351964179273 0 0)
(-0.1364801293346598 0 0)
(-0.1497649371897059 0 0)
(-0.1609741787829679 0 0)
(-0.1695265946266458 0 0)
(-0.1748562933617301 0 0)
(-0.1762821115200046 0 0)
(-0.1758118516638828 0 0)
(-0.1736487164233427 0 0)
(-0.168473028307564 0 0)
(-0.1599228143265755 0 0)
(-0.1482808537611351 0 0)
(-0.1340729402170647 0 0)
(-0.1178763445230224 0 0)
(-0.1002830314361684 0 0)
(-0.08190560807886486 0 0)
(-0.06333889026032868 0 0)
(-0.04506475817738771 0 0)
(-0.02738270945235165 0 0)
(-0.0104494015706377 0 0)
(0.005605483432079681 0 0)
(0.02060265248254872 0 0)
(0.0343202938936144 0 0)
(0.04648975710023073 0 0)
(0.05685345723913498 0 0)
(0.06504261673206772 0 0)
(0.07109407190903917 0 0)
(0.07532189699991867 0 0)
(0.07675296456240015 0 0)
(0.07579017134945022 0 0)
(0.07325885072815777 0 0)
(0.06939176976147972 0 0)
(0.06470401726017262 0 0)
(0.05847017372721533 0 0)
(0.05151241795365939 0 0)
(0.04377130213046438 0 0)
(0.03462373729351548 0 0)
(0.02362167014134664 0 0)
(0.01081476602807875 0 0)
(-0.003441022760675565 0 0)
(-0.01878521230250962 0 0)
(-0.0349694096998962 0 0)
(-0.05178892954048486 0 0)
(-0.06902502664538629 0 0)
(-0.08647737921665516 0 0)
(-0.1039637843818386 0 0)
(-0.1212489574250047 0 0)
(-0.1379497856247338 0 0)
(-0.1532490295683244 0 0)
(-0.1655932598599647 0 0)
(-0.1734655394191033 0 0)
(-0.1768045182505087 0 0)
(-0.1773718679880159 0 0)
(-0.1759739094964211 0 0)
(-0.1733034238788874 0 0)
(-0.1686971442095546 0 0)
(-0.1617757926076829 0 0)
(-0.1522751844897621 0 0)
(-0.1400376394217534 0 0)
(-0.1251598703110293 0 0)
(-0.1081019200808324 0 0)
(-0.08963038989643797 0 0)
(-0.07062079010971287 0 0)
(-0.05183288081863825 0 0)
(-0.03378305027391679 0 0)
(-0.01675584639966972 0 0)
(-0.00089076832663128 0 0)
(0.01374754540256971 0 0)
(0.02713291784173521 0 0)
(0.03919654862696658 0 0)
(0.04979530287736064 0 0)
(0.0586842902665328 0 0)
(0.06577562919665624 0 0)
(0.07136521268547441 0 0)
(0.07411475457983652 0 0)
(0.0739098407568012 0 0)
(0.07185713476113575 0 0)
(0.06825521163422038 0 0)
(0.06378224651098711 0 0)
(0.0589205406615592 0 0)
(0.05239209429990235 0 0)
(0.04610787744610376 0 0)
(0.03903387433241175 0 0)
(0.03088171425995225 0 0)
(0.02129182851817879 0 0)
(0.01018626880443522 0 0)
(-0.002351850663271614 0 0)
(-0.01615923841171945 0 0)
(-0.03099428816235672 0 0)
(-0.04651933109293447 0 0)
(-0.06234034949325951 0 0)
(-0.07809731649771501 0 0)
(-0.09349925157956814 0 0)
(-0.108271924742762 0 0)
(-0.1220857547018697 0 0)
(-0.1343796955535831 0 0)
(-0.1442359176236606 0 0)
(-0.1508050272755116 0 0)
(-0.1537049075808421 0 0)
(-0.1540920245291967 0 0)
(-0.1532303207898319 0 0)
(-0.1507329994433533 0 0)
(-0.1468865863661277 0 0)
(-0.1421276846481617 0 0)
(-0.136079029076603 0 0)
(-0.1285415605329628 0 0)
(-0.1193524514386873 0 0)
(-0.1084150566151201 0 0)
(-0.0957623304017536 0 0)
(-0.08157829543005234 0 0)
(-0.06617495218874354 0 0)
(-0.04995396170606262 0 0)
(-0.0333641201766682 0 0)
(-0.01685445530205356 0 0)
(-0.0008228223252604302 0 0)
(0.01442680294533016 0 0)
(0.02862919254255542 0 0)
(0.04140953956504578 0 0)
(0.05246203447784813 0 0)
(0.06150882957935835 0 0)
(0.0665806041065459 0 0)
(0.06726931771909028 0 0)
(0.06547329775539328 0 0)
(0.0618623847251454 0 0)
(0.05707441986586535 0 0)
(0.05158284385099829 0 0)
(0.04449977126820721 0 0)
(0.03744970102959196 0 0)
(0.02980062618435708 0 0)
(0.02128816490481821 0 0)
(0.01165153322900683 0 0)
(0.0008312232482642252 0 0)
(-0.01115830284285599 0 0)
(-0.02425504606089406 0 0)
(-0.03831804501304436 0 0)
(-0.05311614449835439 0 0)
(-0.06835396729450459 0 0)
(-0.08374178872115673 0 0)
(-0.09905004174021391 0 0)
(-0.1140615562081309 0 0)
(-0.1284872856754258 0 0)
(-0.1417774672342823 0 0)
(-0.1528339312367583 0 0)
(-0.1605242669909826 0 0)
(-0.1642853665547766 0 0)
(-0.1648313887112526 0 0)
(-0.1637041528888615 0 0)
(-0.1609660020753435 0 0)
(-0.1564530350846255 0 0)
(-0.1506449610489307 0 0)
(-0.1440565199193975 0 0)
(-0.1362987421346245 0 0)
(-0.1272754475037762 0 0)
(-0.1169363690026512 0 0)
(-0.105273740078348 0 0)
(-0.09236458071360741 0 0)
(-0.07837883156019745 0 0)
(-0.06357438935862678 0 0)
(-0.04828164197549046 0 0)
(-0.03286274799743976 0 0)
(-0.01765316726113062 0 0)
(-0.002913339078654606 0 0)
(0.01111980559757914 0 0)
(0.02414730926099781 0 0)
(0.03581522371354248 0 0)
(0.04543335404735276 0 0)
(0.05130457912759877 0 0)
(0.05273203413588679 0 0)
(0.05161392234085218 0 0)
(0.04880395721777353 0 0)
(0.04443242747640824 0 0)
(0.03887365351572283 0 0)
(0.03201288667070224 0 0)
(0.02455708040148086 0 0)
(0.01696203460819517 0 0)
(0.008802867395385853 0 0)
(-0.0002687451392182274 0 0)
(-0.01040556268076522 0 0)
(-0.021606458072806 0 0)
(-0.0338337662495649 0 0)
(-0.04704931322199724 0 0)
(-0.0611738822664579 0 0)
(-0.07603760274599473 0 0)
(-0.09140483921084665 0 0)
(-0.1070314778474123 0 0)
(-0.1226308547458402 0 0)
(-0.1378012028907383 0 0)
(-0.1518627218738975 0 0)
(-0.1635322969288261 0 0)
(-0.1715221280624996 0 0)
(-0.175634759108983 0 0)
(-0.1764584000795527 0 0)
(-0.1754094551768426 0 0)
(-0.1726126251201529 0 0)
(-0.1678741735436961 0 0)
(-0.1614684754131407 0 0)
(-0.1540485366510325 0 0)
(-0.1457589264386931 0 0)
(-0.1364322745697525 0 0)
(-0.126118634147852 0 0)
(-0.1148236423269481 0 0)
(-0.1025371596834847 0 0)
(-0.08933553693988058 0 0)
(-0.07541916869472008 0 0)
(-0.06105572668271769 0 0)
(-0.04650244104378144 0 0)
(-0.03198819621178725 0 0)
(-0.01771939150452749 0 0)
(-0.003961059686043573 0 0)
(0.008912940912096559 0 0)
(0.02050950299057548 0 0)
(0.02988411332262528 0 0)
(0.03512911452409503 0 0)
(0.03620622219227074 0 0)
(0.03490875043881157 0 0)
(0.03166537091238476 0 0)
(0.02667840907598548 0 0)
(0.02042492757493639 0 0)
(0.01324784186597856 0 0)
(0.004544623413793661 0 0)
(-0.004091849380787602 0 0)
(-0.01296446810699588 0 0)
(-0.02224749392417595 0 0)
(-0.03222571578698552 0 0)
(-0.04303412842518163 0 0)
(-0.0547184113101955 0 0)
(-0.06729824656414302 0 0)
(-0.08075140872277246 0 0)
(-0.09497289943040758 0 0)
(-0.1098129116251064 0 0)
(-0.1251216619081846 0 0)
(-0.1406186351185482 0 0)
(-0.1557672514863527 0 0)
(-0.1697183585432576 0 0)
(-0.1811169528721393 0 0)
(-0.1885850689827883 0 0)
(-0.1919112561984442 0 0)
(-0.1924151472329076 0 0)
(-0.1913457323722569 0 0)
(-0.1884386904608672 0 0)
(-0.1834101385375705 0 0)
(-0.1767066520489834 0 0)
(-0.168750692996418 0 0)
(-0.1602937766968515 0 0)
(-0.1509724041454304 0 0)
(-0.1407622293091778 0 0)
(-0.1296453772250322 0 0)
(-0.1175934620838077 0 0)
(-0.1046381648303007 0 0)
(-0.09089204871666091 0 0)
(-0.07652428920832507 0 0)
(-0.06176976275023029 0 0)
(-0.04696468216998098 0 0)
(-0.03244182525406903 0 0)
(-0.01849314517208765 0 0)
(-0.005649831301805487 0 0)
(0.005522757071258052 0 0)
(0.01406425224908625 0 0)
(0.0175283758864771 0 0)
(0.01670830681463995 0 0)
(0.01320936120140002 0 0)
(0.007226930189270162 0 0)
(-0.0006946979686839085 0 0)
(-0.01006673658834885 0 0)
(-0.02048939958778922 0 0)
(-0.03150054160761826 0 0)
(-0.04252590315348339 0 0)
(-0.05501183838745972 0 0)
(-0.06609553944898242 0 0)
(-0.07727454655024321 0 0)
(-0.08846901624120133 0 0)
(-0.1000175128347862 0 0)
(-0.112086518723057 0 0)
(-0.1246609992365522 0 0)
(-0.1376883069765336 0 0)
(-0.1511826031205485 0 0)
(-0.1651697232315422 0 0)
(-0.1794039292744856 0 0)
(-0.1932308680243896 0 0)
(-0.2057511306625915 0 0)
(-0.215513443053046 0 0)
(-0.220972720609117 0 0)
(-0.2224659250252743 0 0)
(-0.2216381259884986 0 0)
(-0.2186963144340612 0 0)
(-0.2135639315955926 0 0)
(-0.2067816318074154 0 0)
(-0.1988197363538208 0 0)
(-0.1898079936041404 0 0)
(-0.179296896725798 0 0)
(-0.1688751945351674 0 0)
(-0.1580816052162501 0 0)
(-0.1468516687398906 0 0)
(-0.1351010711189029 0 0)
(-0.1228207776020835 0 0)
(-0.1100415695947411 0 0)
(-0.09681493529326589 0 0)
(-0.08326205554943235 0 0)
(-0.06965767536101514 0 0)
(-0.05632437312958983 0 0)
(-0.04353330555363299 0 0)
(-0.03178325407316829 0 0)
(-0.02169618334028002 0 0)
(-0.01488043797706772 0 0)
(-0.01305296841938252 0 0)
(-0.01503090895545471 0 0)
(-0.01994721489013514 0 0)
(-0.02752419936417749 0 0)
(-0.03711890557149212 0 0)
(-0.04824270076324334 0 0)
(-0.06047349361586216 0 0)
(-0.07336660734991816 0 0)
(-0.08643771872579573 0 0)
(-0.09916885479114861 0 0)
(-0.1127413628548742 0 0)
(-0.1248593014878985 0 0)
(-0.1369175327832837 0 0)
(-0.1486595980293591 0 0)
(-0.1603013078165304 0 0)
(-0.1721314844086051 0 0)
(-0.1844125808585332 0 0)
(-0.1972100569798746 0 0)
(-0.2104261738764585 0 0)
(-0.2237344194719942 0 0)
(-0.2364132962869837 0 0)
(-0.2476098029468035 0 0)
(-0.2558557079985669 0 0)
(-0.2592393572484645 0 0)
(-0.2589311909503779 0 0)
(-0.2561776719390272 0 0)
(-0.2507562325776768 0 0)
(-0.2430172373553429 0 0)
(-0.2335284758015954 0 0)
(-0.2228389890504615 0 0)
(-0.2113635625856924 0 0)
(-0.1996932337443413 0 0)
(-0.1871012529458616 0 0)
(-0.1748869776981618 0 0)
(-0.1627824041902135 0 0)
(-0.1509858759657729 0 0)
(-0.1394019097787498 0 0)
(-0.1278564502096448 0 0)
(-0.1161724800424024 0 0)
(-0.1042977923626697 0 0)
(-0.09236295204614314 0 0)
(-0.08056835668673676 0 0)
(-0.06911800910233964 0 0)
(-0.05851494662245322 0 0)
(-0.04939357713994262 0 0)
(-0.04367612513022921 0 0)
(-0.04255458435752102 0 0)
(-0.04484787510474981 0 0)
(-0.05019570957216314 0 0)
(-0.05834422591167262 0 0)
(-0.0686939834180097 0 0)
(-0.08065307725390139 0 0)
(-0.09369067332312919 0 0)
(-0.1072971756439896 0 0)
(-0.1211410197300118 0 0)
(-0.134409270409083 0 0)
(-0.1483702672003453 0 0)
(-0.1608247775472792 0 0)
(-0.173042488304211 0 0)
(-0.1847690083632651 0 0)
(-0.1961800279934052 0 0)
(-0.2075190658914662 0 0)
(-0.2191358796108326 0 0)
(-0.2312523740651049 0 0)
(-0.2439454473397372 0 0)
(-0.2570540833868181 0 0)
(-0.2696675771796934 0 0)
(-0.2806515399557276 0 0)
(-0.2888871986027091 0 0)
(-0.2922272664653079 0 0)
(-0.2913930200437566 0 0)
(-0.2876485618450376 0 0)
(-0.2808020610977565 0 0)
(-0.2712591092045359 0 0)
(-0.2596706297466475 0 0)
(-0.246702205322467 0 0)
(-0.2329679550264883 0 0)
(-0.2189045164661269 0 0)
(-0.2052710788410488 0 0)
(-0.1911707868657255 0 0)
(-0.178343125589404 0 0)
(-0.1660773174514648 0 0)
(-0.154541709591446 0 0)
(-0.1436978185958179 0 0)
(-0.1333860352125133 0 0)
(-0.1233359669224361 0 0)
(-0.1133580386303179 0 0)
(-0.1033593938889695 0 0)
(-0.09333742173679763 0 0)
(-0.08377046096988741 0 0)
(-0.07536714221625641 0 0)
(-0.06986534987575797 0 0)
(-0.06857882251878429 0 0)
(-0.07058811880223426 0 0)
(-0.07557933047847304 0 0)
(-0.083499259430866 0 0)
(-0.09388374279209565 0 0)
(-0.1061430342788763 0 0)
(-0.1196273871845152 0 0)
(-0.1336790044253768 0 0)
(-0.1478124841616671 0 0)
(-0.1616001861086566 0 0)
(-0.1753103724083183 0 0)
(-0.1881552218466667 0 0)
(-0.1999869912537596 0 0)
(-0.2114712155879309 0 0)
(-0.222622568591723 0 0)
(-0.2335756258331856 0 0)
(-0.2444795805762255 0 0)
(-0.2556825588393388 0 0)
(-0.2676141827311023 0 0)
(-0.2803445402925805 0 0)
(-0.2930164236467063 0 0)
(-0.3043685939827591 0 0)
(-0.3135671495067273 0 0)
(-0.3181295562837008 0 0)
(-0.3178763774315136 0 0)
(-0.3142807618987832 0 0)
(-0.3071755032755433 0 0)
(-0.2968549226021341 0 0)
(-0.2840035456121791 0 0)
(-0.2694536050608413 0 0)
(-0.2539716362559765 0 0)
(-0.2382714601680568 0 0)
(-0.2227491799678364 0 0)
(-0.2082850866485313 0 0)
(-0.1935589331204046 0 0)
(-0.1814692920527488 0 0)
(-0.1701746625765063 0 0)
(-0.1600491269933268 0 0)
(-0.1508713905595395 0 0)
(-0.1425129084129538 0 0)
(-0.1346612301196072 0 0)
(-0.1269291954119766 0 0)
(-0.1189863314911425 0 0)
(-0.1110628235106778 0 0)
(-0.1037282265681143 0 0)
(-0.09843787461131237 0 0)
(-0.09677966881443967 0 0)
(-0.09822194501850851 0 0)
(-0.102479071702758 0 0)
(-0.1097641088761083 0 0)
(-0.119749819016356 0 0)
(-0.1318561584312664 0 0)
(-0.1454000743467314 0 0)
(-0.159745186840717 0 0)
(-0.1743177158491014 0 0)
(-0.1888669146456385 0 0)
(-0.2026177719358359 0 0)
(-0.216354489704869 0 0)
(-0.2281923850426464 0 0)
(-0.2396975533991658 0 0)
(-0.2504993975553007 0 0)
(-0.2608878818487622 0 0)
(-0.2709720051101739 0 0)
(-0.2810990232085777 0 0)
(-0.2917063060792018 0 0)
(-0.3029850917266719 0 0)
(-0.3145048282241266 0 0)
(-0.3253295079304431 0 0)
(-0.3346060284428386 0 0)
(-0.3400655524328694 0 0)
(-0.3407932701991518 0 0)
(-0.3380511705095559 0 0)
(-0.3318717099719081 0 0)
(-0.3224086963865638 0 0)
(-0.3102346599205544 0 0)
(-0.296099154596257 0 0)
(-0.2808044853083126 0 0)
(-0.2651887979039321 0 0)
(-0.2497932845901796 0 0)
(-0.2354015768602835 0 0)
(-0.2209972457353294 0 0)
(-0.2091138713982516 0 0)
(-0.1980891249252985 0 0)
(-0.1880501738066674 0 0)
(-0.1787296889530931 0 0)
(-0.16988121777184 0 0)
(-0.1610396300216197 0 0)
(-0.1516976016606725 0 0)
(-0.1414767723662344 0 0)
(-0.1303387736527151 0 0)
(-0.118826153888821 0 0)
(-0.1077762405273833 0 0)
(-0.09818003313636718 0 0)
(-0.09145504228057574 0 0)
(-0.08831050593839164 0 0)
(-0.08771393135654439 0 0)
(-0.08906672980771126 0 0)
(-0.09294014770450403 0 0)
(-0.09924009316945985 0 0)
(-0.1072651740194678 0 0)
(-0.1169329932624128 0 0)
(-0.1272324109593502 0 0)
(-0.1377640000498553 0 0)
(-0.1484728516527978 0 0)
(-0.1592667372133845 0 0)
(-0.1700722989404612 0 0)
(-0.1808962463456164 0 0)
(-0.1918409455281994 0 0)
(-0.2030478616272507 0 0)
(-0.2146351271538305 0 0)
(-0.2267154702211937 0 0)
(-0.2394134131749538 0 0)
(-0.2526744141124654 0 0)
(-0.2658298175511843 0 0)
(-0.2779360003998129 0 0)
(-0.2881488053484433 0 0)
(-0.2939543745248562 0 0)
(-0.2947830397867305 0 0)
(-0.2923161899187275 0 0)
(-0.28668957352707 0 0)
(-0.2781360667749531 0 0)
(-0.2671361325866417 0 0)
(-0.2541802764504977 0 0)
(-0.2398782907099637 0 0)
(-0.224879951689534 0 0)
(-0.2102662925946367 0 0)
(-0.1952061950057677 0 0)
(-0.1822145701142498 0 0)
(-0.1699883507564027 0 0)
(-0.1588600010055541 0 0)
(-0.1487105555452406 0 0)
(-0.1393294886057859 0 0)
(-0.1304089914973909 0 0)
(-0.1216963274825176 0 0)
(-0.1129508551181506 0 0)
(-0.1039503879694971 0 0)
(-0.09493774948100381 0 0)
(-0.08637660463206191 0 0)
(-0.0791390101676812 0 0)
(-0.07543198456759187 0 0)
(-0.07513443296347727 0 0)
(-0.0771825936210099 0 0)
(-0.0819075984784816 0 0)
(-0.08911096521664902 0 0)
(-0.09836189003345823 0 0)
(-0.1091660366100274 0 0)
(-0.1211248277820632 0 0)
(-0.1335260301387812 0 0)
(-0.1469250376772301 0 0)
(-0.1593868278904967 0 0)
(-0.1715654698836726 0 0)
(-0.1833059824499112 0 0)
(-0.1946993167262106 0 0)
(-0.2057833697004428 0 0)
(-0.2166564357406562 0 0)
(-0.2275507475495242 0 0)
(-0.2388456240598754 0 0)
(-0.2508363374193973 0 0)
(-0.26351533836956 0 0)
(-0.2764267483479288 0 0)
(-0.2886017252391231 0 0)
(-0.2990653014909367 0 0)
(-0.3061190435038549 0 0)
(-0.3081289177562779 0 0)
(-0.3063157251417645 0 0)
(-0.301365302204924 0 0)
(-0.2931576572765618 0 0)
(-0.282120330494991 0 0)
(-0.2688362756487668 0 0)
(-0.2539848235615055 0 0)
(-0.2382946353254821 0 0)
(-0.2223988739180691 0 0)
(-0.2067556803248529 0 0)
(-0.1920319510749566 0 0)
(-0.1789662664835744 0 0)
(-0.1670485371382714 0 0)
(-0.1565497087357025 0 0)
(-0.1472699283111445 0 0)
(-0.1389187653233787 0 0)
(-0.1310499692047431 0 0)
(-0.123194549299454 0 0)
(-0.1150325512784851 0 0)
(-0.1067819991277282 0 0)
(-0.09881061557773449 0 0)
(-0.09159905694558915 0 0)
(-0.08723407884132606 0 0)
(-0.08633883862478586 0 0)
(-0.08786937506047675 0 0)
(-0.09199946290926901 0 0)
(-0.09875602537265428 0 0)
(-0.107764602325746 0 0)
(-0.1185869325957446 0 0)
(-0.1307523033513187 0 0)
(-0.1438170247045089 0 0)
(-0.1573165676155706 0 0)
(-0.1709541738216403 0 0)
(-0.1836139083006995 0 0)
(-0.1959129226431666 0 0)
(-0.2075819382404053 0 0)
(-0.2186869163529012 0 0)
(-0.2293204009200156 0 0)
(-0.2397766073345428 0 0)
(-0.2504544827658131 0 0)
(-0.2616660382948306 0 0)
(-0.2735792415217703 0 0)
(-0.2860915707048309 0 0)
(-0.2983151641666593 0 0)
(-0.3091250942149383 0 0)
(-0.3175392080981368 0 0)
(-0.321102114851509 0 0)
(-0.3201842358027214 0 0)
(-0.316107262187571 0 0)
(-0.3086189962237641 0 0)
(-0.2979734695534486 0 0)
(-0.2846585134694242 0 0)
(-0.2693252660243302 0 0)
(-0.2528058171023146 0 0)
(-0.235922554304798 0 0)
(-0.2195408057109293 0 0)
(-0.2031113344412514 0 0)
(-0.1892674039583227 0 0)
(-0.1768209868307924 0 0)
(-0.1659230623806148 0 0)
(-0.1566388548555557 0 0)
(-0.1487650001682902 0 0)
(-0.141828780985943 0 0)
(-0.1352354910303998 0 0)
(-0.1285213235759624 0 0)
(-0.1216254208371409 0 0)
(-0.1146461971943296 0 0)
(-0.1078381203848759 0 0)
(-0.1029515891271506 0 0)
(-0.1013107006116769 0 0)
(-0.1021339591441788 0 0)
(-0.1053010244351951 0 0)
(-0.111085133884211 0 0)
(-0.1192622324310835 0 0)
(-0.1295447034366622 0 0)
(-0.1414765207196133 0 0)
(-0.1546398752362531 0 0)
(-0.1680668687188387 0 0)
(-0.1826214537985776 0 0)
(-0.1956734769801018 0 0)
(-0.208442168859437 0 0)
(-0.2203888767863244 0 0)
(-0.2316487896244792 0 0)
(-0.2423129898677805 0 0)
(-0.2525982225182659 0 0)
(-0.2627685059557797 0 0)
(-0.2731608821336253 0 0)
(-0.2841475762488858 0 0)
(-0.2958553164812302 0 0)
(-0.3076722464609867 0 0)
(-0.318589380156417 0 0)
(-0.3278214949008762 0 0)
(-0.3329590047665023 0 0)
(-0.3333788301868797 0 0)
(-0.3304125705132836 0 0)
(-0.3239086750836819 0 0)
(-0.3139837792664612 0 0)
(-0.3011039830955809 0 0)
(-0.2859350811167573 0 0)
(-0.2692476691530143 0 0)
(-0.2518989884017485 0 0)
(-0.2346296108187505 0 0)
(-0.2176437727419661 0 0)
(-0.2027072826082257 0 0)
(-0.1896667397048184 0 0)
(-0.1782632162911338 0 0)
(-0.1687594148093802 0 0)
(-0.1608021992673162 0 0)
(-0.1539815510214915 0 0)
(-0.1477547093560593 0 0)
(-0.1415128747458279 0 0)
(-0.134703624308124 0 0)
(-0.1272299789204905 0 0)
(-0.1193926627600239 0 0)
(-0.1120680563184688 0 0)
(-0.1068893407071417 0 0)
(-0.104574083755878 0 0)
(-0.1042952827088943 0 0)
(-0.1060155461738203 0 0)
(-0.1103245974871192 0 0)
(-0.1170194833438373 0 0)
(-0.1255723914468858 0 0)
(-0.1354544148502355 0 0)
(-0.1475612068346536 0 0)
(-0.1592689703193908 0 0)
(-0.1713661296715068 0 0)
(-0.183435333135135 0 0)
(-0.1952729269729291 0 0)
(-0.2067722718518851 0 0)
(-0.2179023897569808 0 0)
(-0.2287399193982651 0 0)
(-0.239521693691215 0 0)
(-0.2505809908873424 0 0)
(-0.2621489468373249 0 0)
(-0.2742808511448567 0 0)
(-0.2867708538596235 0 0)
(-0.2987459382868268 0 0)
(-0.3092241575734413 0 0)
(-0.3172392231818274 0 0)
(-0.3204450843606582 0 0)
(-0.3193449993665854 0 0)
(-0.3151441474097009 0 0)
(-0.3075915183852017 0 0)
(-0.2969562878559894 0 0)
(-0.2836877780734519 0 0)
(-0.2683580710371586 0 0)
(-0.2517106340525811 0 0)
(-0.2345199647384372 0 0)
(-0.2172822580125049 0 0)
(-0.2012412875016321 0 0)
(-0.18688532249083 0 0)
(-0.1740430917714167 0 0)
(-0.1630849858173527 0 0)
(-0.1538861484355542 0 0)
(-0.1461903874637597 0 0)
(-0.1395376155352152 0 0)
(-0.1333694895079943 0 0)
(-0.1271671722100801 0 0)
(-0.1208329475321795 0 0)
(-0.11439170182055 0 0)
(-0.1081051243407392 0 0)
(-0.1036530588195268 0 0)
(-0.1020389113535133 0 0)
(-0.1025025789147069 0 0)
(-0.105080033274957 0 0)
(-0.1101408164886976 0 0)
(-0.1175012007348195 0 0)
(-0.1268836990271949 0 0)
(-0.1379357433331752 0 0)
(-0.149994484160089 0 0)
(-0.1639256632850715 0 0)
(-0.1768799305522454 0 0)
(-0.1899369885890663 0 0)
(-0.2025669597321396 0 0)
(-0.2146405617442391 0 0)
(-0.2260672374897708 0 0)
(-0.2369339761906222 0 0)
(-0.247486317172913 0 0)
(-0.2580298820810071 0 0)
(-0.2688445923650498 0 0)
(-0.2801705867664805 0 0)
(-0.2920277381368429 0 0)
(-0.3037584867703644 0 0)
(-0.3144308597191568 0 0)
(-0.3233751652031578 0 0)
(-0.3281710424078895 0 0)
(-0.3283910732080886 0 0)
(-0.3254030181110165 0 0)
(-0.3190126951312248 0 0)
(-0.3093306274703537 0 0)
(-0.2966954417849716 0 0)
(-0.2816242257827469 0 0)
(-0.2648540212611927 0 0)
(-0.2471687096209013 0 0)
(-0.2294471212661137 0 0)
(-0.2117099628829704 0 0)
(-0.1962995901159384 0 0)
(-0.1824946245193537 0 0)
(-0.1706457376355519 0 0)
(-0.1608358311200025 0 0)
(-0.1529167122965233 0 0)
(-0.1464225469985624 0 0)
(-0.140757959532448 0 0)
(-0.1353923074140061 0 0)
(-0.1300115824986437 0 0)
(-0.1243967631059982 0 0)
(-0.1184876362616482 0 0)
(-0.1135309074593992 0 0)
(-0.1110085392637028 0 0)
(-0.110497896143787 0 0)
(-0.1117526858014278 0 0)
(-0.1153420728203773 0 0)
(-0.1212734250407822 0 0)
(-0.1293548626929067 0 0)
(-0.1392859107898287 0 0)
(-0.1505066693245626 0 0)
(-0.1640550446118859 0 0)
(-0.1769950054858931 0 0)
(-0.1902589495446109 0 0)
(-0.2032658940128884 0 0)
(-0.2157626275480988 0 0)
(-0.2276051131355093 0 0)
(-0.2388090255902004 0 0)
(-0.2494853522810196 0 0)
(-0.2598576462688335 0 0)
(-0.2702838797497072 0 0)
(-0.2811162911529699 0 0)
(-0.2924790208304919 0 0)
(-0.3040439716322305 0 0)
(-0.3149627562691172 0 0)
(-0.3244159321848291 0 0)
(-0.3310191151117631 0 0)
(-0.3330138181834775 0 0)
(-0.3312528948102287 0 0)
(-0.3263466236635846 0 0)
(-0.318025411070658 0 0)
(-0.30656444601705 0 0)
(-0.2924204718519099 0 0)
(-0.2762065727530491 0 0)
(-0.2586778650636506 0 0)
(-0.2408077306508749 0 0)
(-0.2222721909782329 0 0)
(-0.2059883358457356 0 0)
(-0.1911885099316651 0 0)
(-0.1782717953218014 0 0)
(-0.1674823999490989 0 0)
(-0.1586996546449567 0 0)
(-0.1515637145529239 0 0)
(-0.1455326787711171 0 0)
(-0.1399685781601724 0 0)
(-0.1342436547345533 0 0)
(-0.1281017176466215 0 0)
(-0.1215306579313778 0 0)
(-0.1149770056820564 0 0)
(-0.1098699208848187 0 0)
(-0.1070601392146886 0 0)
(-0.1060627136270051 0 0)
(-0.1066933458424737 0 0)
(-0.1095162356119212 0 0)
(-0.1147615830248391 0 0)
(-0.1219294566859612 0 0)
(-0.1312520008442715 0 0)
(-0.1423535609626445 0 0)
(-0.1540827624136107 0 0)
(-0.1663936896952098 0 0)
(-0.1790040436385838 0 0)
(-0.1915525481126032 0 0)
(-0.2037476742473336 0 0)
(-0.2154194236729356 0 0)
(-0.2266039419788225 0 0)
(-0.2375464949425814 0 0)
(-0.2485775677592209 0 0)
(-0.2599601702619145 0 0)
(-0.271839115277855 0 0)
(-0.2841026508644544 0 0)
(-0.2960201592446567 0 0)
(-0.3066914734247888 0 0)
(-0.3155380645953025 0 0)
(-0.3201613674278017 0 0)
(-0.3202316786964841 0 0)
(-0.3171968278629738 0 0)
(-0.3109443386805263 0 0)
(-0.3016442137004366 0 0)
(-0.2896035680857195 0 0)
(-0.275238212266546 0 0)
(-0.2591138186909502 0 0)
(-0.2420357095891713 0 0)
(-0.2241069924863283 0 0)
(-0.207398569613846 0 0)
(-0.191596886335536 0 0)
(-0.1773333641474195 0 0)
(-0.1648785134181976 0 0)
(-0.1543748688106316 0 0)
(-0.1457505151985735 0 0)
(-0.1386807456909874 0 0)
(-0.1326717612106315 0 0)
(-0.1272073369758857 0 0)
(-0.1220263879977185 0 0)
(-0.1168635907612215 0 0)
(-0.1115610133253154 0 0)
(-0.1074190033856678 0 0)
(-0.1056105045484973 0 0)
(-0.1055736908586409 0 0)
(-0.1072714376718295 0 0)
(-0.1111165683036507 0 0)
(-0.1170053216115138 0 0)
(-0.1249733898399235 0 0)
(-0.134585598311352 0 0)
(-0.1463306618000909 0 0)
(-0.1591667995521883 0 0)
(-0.1725121726268957 0 0)
(-0.1860713565763387 0 0)
(-0.1995605974568182 0 0)
(-0.2125780340355888 0 0)
(-0.2248781372359126 0 0)
(-0.236420385391575 0 0)
(-0.2473510132049053 0 0)
(-0.2579160834016702 0 0)
(-0.2684282686532001 0 0)
(-0.2792134016280075 0 0)
(-0.2904209876189132 0 0)
(-0.3016970742468476 0 0)
(-0.3122702510977687 0 0)
(-0.3214155650436207 0 0)
(-0.3275259175379112 0 0)
(-0.3291187813184371 0 0)
(-0.3271908396038454 0 0)
(-0.3221622612986927 0 0)
(-0.313835663645585 0 0)
(-0.3024983195337213 0 0)
(-0.288580108383813 0 0)
(-0.2725970699219507 0 0)
(-0.255400698306691 0 0)
(-0.2369903961784014 0 0)
(-0.2192540488729724 0 0)
(-0.2023801669310261 0 0)
(-0.1869140641269082 0 0)
(-0.1733125234231172 0 0)
(-0.1618583171737868 0 0)
(-0.1525915471843174 0 0)
(-0.1452830248176098 0 0)
(-0.1395078203698327 0 0)
(-0.134729646025372 0 0)
(-0.1304115364792254 0 0)
(-0.1260872489782388 0 0)
(-0.1214116328946175 0 0)
(-0.1173096455921395 0 0)
(-0.1149907951940276 0 0)
(-0.1142392476556505 0 0)
(-0.114972735613709 0 0)
(-0.1176602993435681 0 0)
(-0.1223656939497757 0 0)
(-0.1291273195522435 0 0)
(-0.1375701784024287 0 0)
(-0.1479922135174317 0 0)
(-0.1604103220534413 0 0)
(-0.1734017764981743 0 0)
(-0.1869556101017559 0 0)
(-0.2007068888585922 0 0)
(-0.214212172301648 0 0)
(-0.227166042086127 0 0)
(-0.2393618633740718 0 0)
(-0.2507350556646035 0 0)
(-0.2614296078190105 0 0)
(-0.2717879391765367 0 0)
(-0.2821583121742611 0 0)
(-0.2927393826023263 0 0)
(-0.3034461382592771 0 0)
(-0.3137125434216548 0 0)
(-0.3229379351969355 0 0)
(-0.3302582342061747 0 0)
(-0.333534027106464 0 0)
(-0.3330231114629342 0 0)
(-0.3296166906977556 0 0)
(-0.3228098616975217 0 0)
(-0.3126596636285198 0 0)
(-0.2995642500910644 0 0)
(-0.2840916559670376 0 0)
(-0.2669858285411172 0 0)
(-0.2488407932016864 0 0)
(-0.2305245739117719 0 0)
(-0.2133410348191986 0 0)
(-0.19720803091914 0 0)
(-0.1826508020647147 0 0)
(-0.1699675419505908 0 0)
(-0.159370439219499 0 0)
(-0.1508634738506721 0 0)
(-0.1441400306236516 0 0)
(-0.1385885151743727 0 0)
(-0.1334391707068569 0 0)
(-0.1281843760164573 0 0)
(-0.1224642404566066 0 0)
(-0.1162749018431889 0 0)
(-0.1107173305493712 0 0)
(-0.1068082820359788 0 0)
(-0.1046433342940483 0 0)
(-0.1040239270493686 0 0)
(-0.1052155401910907 0 0)
(-0.1086027593169215 0 0)
(-0.1140435872796616 0 0)
(-0.1225777823029414 0 0)
(-0.132121726705521 0 0)
(-0.1427804695720506 0 0)
(-0.1544451335413972 0 0)
(-0.1668371722085824 0 0)
(-0.1796035792918555 0 0)
(-0.1923870774210618 0 0)
(-0.2049109263378893 0 0)
(-0.2170603231344121 0 0)
(-0.2288865413025844 0 0)
(-0.2405371379271592 0 0)
(-0.2521986575194391 0 0)
(-0.2640372858295044 0 0)
(-0.2760490272854268 0 0)
(-0.2877890386486481 0 0)
(-0.2985001182299202 0 0)
(-0.3076377411341999 0 0)
(-0.3137634264983306 0 0)
(-0.3154820460265543 0 0)
(-0.3139394339939535 0 0)
(-0.3096190809561934 0 0)
(-0.3022135956644458 0 0)
(-0.2916900618828206 0 0)
(-0.2780508955702808 0 0)
(-0.2616774988292093 0 0)
(-0.2436073119381224 0 0)
(-0.225297635718122 0 0)
(-0.2095538493596636 0 0)
(-0.1960857319713811 0 0)
(-0.1836056367070175 0 0)
(-0.1707199780269867 0 0)
(-0.1568548168629591 0 0)
(-0.1433318781883354 0 0)
(-0.1326975325346794 0 0)
(-0.1261041959561072 0 0)
(-0.1218086277805236 0 0)
(-0.1211553261586346 0 0)
(-0.1137961699390759 0 0)
)
;

boundaryField
{
    inlet
    {
        type            zeroGradient;
    }
    outlet
    {
        type            characteristicPressureInletOutletVelocity;
        UName           U;
        pName           p;
        TName           T;
        phiName         phi;
        rhoName         rho;
        U               (0 0 0);
        p               101325;
        T               300;
        value           uniform (-0.1137961699390759 0 0);
    }
    frontAndBack
    {
        type            empty;
    }
}


// ************************************************************************* //
