/*--------------------------------*- C++ -*----------------------------------*\
| =========                 |                                                 |
| \\      /  F ield         | OpenFOAM: The Open Source CFD Toolbox           |
|  \\    /   O peration     | Version:  v2012                                 |
|   \\  /    A nd           | Website:  www.openfoam.com                      |
|    \\/     M anipulation  |                                                 |
\*---------------------------------------------------------------------------*/
FoamFile
{
    version     2.0;
    format      ascii;
    class       volVectorField;
    location    "0.015";
    object      UMean;
}
// * * * * * * * * * * * * * * * * * * * * * * * * * * * * * * * * * * * * * //

dimensions      [0 1 -1 0 0 0 0];


internalField   nonuniform List<vector> 
1000
(
(-0.001135214947749856 0 0)
(-0.001114802550504844 0 0)
(-0.001090865649433766 0 0)
(-0.001059051481803691 0 0)
(-0.001016254288935415 0 0)
(-0.0009734665832983081 0 0)
(-0.0009166440859325303 0 0)
(-0.0008592388308888297 0 0)
(-0.000793761664153563 0 0)
(-0.0007267222639158745 0 0)
(-0.0006591503959354893 0 0)
(-0.0005935876862968798 0 0)
(-0.0005298960360922603 0 0)
(-0.0004698199665341634 0 0)
(-0.0004146636935451397 0 0)
(-0.000364485727247993 0 0)
(-0.0003198352394636029 0 0)
(-0.0002819738005957512 0 0)
(-0.0002489533864714356 0 0)
(-0.0002245945548537753 0 0)
(-0.0002073466045971845 0 0)
(-0.0001967985790275563 0 0)
(-0.0001937460140502432 0 0)
(-0.0001964428201464928 0 0)
(-0.0002077637786740619 0 0)
(-0.0002253662198236596 0 0)
(-0.0002488662413636897 0 0)
(-0.0002792643552346173 0 0)
(-0.000316920867084814 0 0)
(-0.0003589805966952794 0 0)
(-0.0004099403656725729 0 0)
(-0.0004669750144691241 0 0)
(-0.0005285467677033388 0 0)
(-0.0005938519588672054 0 0)
(-0.0006627940866764982 0 0)
(-0.0007349384595499958 0 0)
(-0.0008085207879587191 0 0)
(-0.0008835030503097328 0 0)
(-0.0009561376703307002 0 0)
(-0.001025460449338814 0 0)
(-0.001090877466185931 0 0)
(-0.001146832812904474 0 0)
(-0.001197043445553545 0 0)
(-0.001239021926708552 0 0)
(-0.001271525864686858 0 0)
(-0.00129450907063631 0 0)
(-0.001306039116227959 0 0)
(-0.001309135767609215 0 0)
(-0.001301686930812796 0 0)
(-0.001282266728475049 0 0)
(-0.001252668810474493 0 0)
(-0.001214798618213599 0 0)
(-0.001166086479142517 0 0)
(-0.001113719508670058 0 0)
(-0.001057449892875364 0 0)
(-0.0009991114588692466 0 0)
(-0.0009397184667778029 0 0)
(-0.0008807223300097278 0 0)
(-0.0008234822050037001 0 0)
(-0.0007673758509010229 0 0)
(-0.0007177827673885024 0 0)
(-0.0006706792520630532 0 0)
(-0.0006280922266385654 0 0)
(-0.0005930079944976167 0 0)
(-0.0005621227232133973 0 0)
(-0.0005400239861847387 0 0)
(-0.0005271956452884949 0 0)
(-0.000522314753305664 0 0)
(-0.0005256536879444567 0 0)
(-0.0005357908011750638 0 0)
(-0.0005538403554422917 0 0)
(-0.0005809015723558967 0 0)
(-0.0006122638948821943 0 0)
(-0.0006493708619349699 0 0)
(-0.0006950274798849235 0 0)
(-0.0007437291168046649 0 0)
(-0.0008015561220877034 0 0)
(-0.0008656645637097069 0 0)
(-0.000933927319462254 0 0)
(-0.001006322584877181 0 0)
(-0.001081838048875713 0 0)
(-0.00116130015604593 0 0)
(-0.001241455348334558 0 0)
(-0.001326418835996846 0 0)
(-0.001409175263036201 0 0)
(-0.001489151809687516 0 0)
(-0.00156716960561618 0 0)
(-0.00163816700672512 0 0)
(-0.001702519669643352 0 0)
(-0.001761987131438427 0 0)
(-0.001813031541351022 0 0)
(-0.00185581937485043 0 0)
(-0.001888681720379447 0 0)
(-0.001912070897662251 0 0)
(-0.001929105861554252 0 0)
(-0.001934086474349991 0 0)
(-0.001928232812811078 0 0)
(-0.001916672859501435 0 0)
(-0.001893896597750397 0 0)
(-0.001866473782149168 0 0)
(-0.001834215851680804 0 0)
(-0.001797127993683984 0 0)
(-0.001758284988157868 0 0)
(-0.00171735053305547 0 0)
(-0.001676808291191716 0 0)
(-0.001635251232288812 0 0)
(-0.001596411311444323 0 0)
(-0.001560471950289172 0 0)
(-0.001522572330670258 0 0)
(-0.001488447137262859 0 0)
(-0.001456627590189255 0 0)
(-0.001427219628422451 0 0)
(-0.001407097530781231 0 0)
(-0.001393859451560428 0 0)
(-0.001389334004454087 0 0)
(-0.001393239013522351 0 0)
(-0.001405214159290178 0 0)
(-0.001429995973622233 0 0)
(-0.001461119169690534 0 0)
(-0.001498409244384878 0 0)
(-0.00154729637144052 0 0)
(-0.001601139718122719 0 0)
(-0.001664166145313267 0 0)
(-0.001735218501023507 0 0)
(-0.001810154945993564 0 0)
(-0.00188963703610632 0 0)
(-0.001971562250850331 0 0)
(-0.002057174002183194 0 0)
(-0.002144365846963903 0 0)
(-0.002232260397786862 0 0)
(-0.002326149199546282 0 0)
(-0.002412049925772708 0 0)
(-0.002496655550226207 0 0)
(-0.002577069784185284 0 0)
(-0.002647159392445539 0 0)
(-0.002714597714448837 0 0)
(-0.002773726866321118 0 0)
(-0.002824933949765825 0 0)
(-0.002867004367675916 0 0)
(-0.002898306476014066 0 0)
(-0.002924191428991985 0 0)
(-0.002939066337412104 0 0)
(-0.002941409483521545 0 0)
(-0.002937939985872327 0 0)
(-0.002924192466252643 0 0)
(-0.002903605360291317 0 0)
(-0.002877802002713386 0 0)
(-0.002846806912155984 0 0)
(-0.002813402162746695 0 0)
(-0.002777835854070742 0 0)
(-0.002741008478797522 0 0)
(-0.002704513352411422 0 0)
(-0.002664088153310328 0 0)
(-0.002637272567412111 0 0)
(-0.002600027304925748 0 0)
(-0.002566781286025348 0 0)
(-0.002537410863384433 0 0)
(-0.002506080284334304 0 0)
(-0.002485167961252074 0 0)
(-0.002471047244909136 0 0)
(-0.002465894678300693 0 0)
(-0.002470234421803474 0 0)
(-0.002482510942631345 0 0)
(-0.002508342409584998 0 0)
(-0.002543356160919861 0 0)
(-0.002584295384931917 0 0)
(-0.00263642791661447 0 0)
(-0.002696669064824256 0 0)
(-0.002764563026959403 0 0)
(-0.00284078526187303 0 0)
(-0.002921781964569032 0 0)
(-0.003006861793510839 0 0)
(-0.003095316410813597 0 0)
(-0.003186010291529407 0 0)
(-0.00328052793522343 0 0)
(-0.003370839813132766 0 0)
(-0.003476529598616487 0 0)
(-0.003568598354697307 0 0)
(-0.003660695675689688 0 0)
(-0.003751505152118396 0 0)
(-0.003830018902089256 0 0)
(-0.003907618261808014 0 0)
(-0.003977387557908676 0 0)
(-0.00403977133119275 0 0)
(-0.004093604069802263 0 0)
(-0.004136166583811978 0 0)
(-0.004171197008137516 0 0)
(-0.004198280138318959 0 0)
(-0.004210379504701099 0 0)
(-0.00421352010583323 0 0)
(-0.00420885061113825 0 0)
(-0.004194668051390725 0 0)
(-0.004175241100383864 0 0)
(-0.004150402158222728 0 0)
(-0.004122763179459144 0 0)
(-0.004093482457783133 0 0)
(-0.004061821673649069 0 0)
(-0.00403110565203996 0 0)
(-0.00399478723296069 0 0)
(-0.00397189717433555 0 0)
(-0.003940923380202362 0 0)
(-0.003910114769665901 0 0)
(-0.003883792333308551 0 0)
(-0.003853794024725535 0 0)
(-0.003832217479139681 0 0)
(-0.003816928628892336 0 0)
(-0.003810395148568232 0 0)
(-0.003813391200299877 0 0)
(-0.003825040285459551 0 0)
(-0.003848028872814254 0 0)
(-0.003886182959476235 0 0)
(-0.003928801267876013 0 0)
(-0.00398186042388317 0 0)
(-0.004047994631110391 0 0)
(-0.004120377595225437 0 0)
(-0.004202706191666263 0 0)
(-0.004289712177012607 0 0)
(-0.004381777027013274 0 0)
(-0.004478186773609355 0 0)
(-0.004577001797131978 0 0)
(-0.00467993324972435 0 0)
(-0.00478142170908017 0 0)
(-0.004891839938612187 0 0)
(-0.005000074490782121 0 0)
(-0.005102360122693058 0 0)
(-0.005205733745146276 0 0)
(-0.005299767749209647 0 0)
(-0.005390536423173998 0 0)
(-0.005475538066279967 0 0)
(-0.005554014082049755 0 0)
(-0.005624299858374316 0 0)
(-0.005684598254007046 0 0)
(-0.005733418671406126 0 0)
(-0.005778399085108154 0 0)
(-0.005805809118841222 0 0)
(-0.00582066684923243 0 0)
(-0.005829725241003536 0 0)
(-0.00582587253244392 0 0)
(-0.005816884175150863 0 0)
(-0.005801186683501268 0 0)
(-0.005781543587023039 0 0)
(-0.005760135963044409 0 0)
(-0.005735905015626865 0 0)
(-0.005711375581125058 0 0)
(-0.00568484741255296 0 0)
(-0.005659394346260204 0 0)
(-0.005643979663126642 0 0)
(-0.005616811386576145 0 0)
(-0.005595404999752972 0 0)
(-0.005572764566458169 0 0)
(-0.005552551622445194 0 0)
(-0.005539510624688258 0 0)
(-0.005533935698991454 0 0)
(-0.005537296515761269 0 0)
(-0.005549980322139281 0 0)
(-0.00557086082517935 0 0)
(-0.005609910827660899 0 0)
(-0.005654856586330331 0 0)
(-0.005708083335757758 0 0)
(-0.005777699088747381 0 0)
(-0.005854572674781216 0 0)
(-0.005942992911867854 0 0)
(-0.006038055140596545 0 0)
(-0.006138158605600165 0 0)
(-0.006245179097946043 0 0)
(-0.006356816253736931 0 0)
(-0.006472946960545842 0 0)
(-0.006593182396802015 0 0)
(-0.006711686787256815 0 0)
(-0.006849766339543504 0 0)
(-0.006970203702064058 0 0)
(-0.007095199217286115 0 0)
(-0.007215570090980341 0 0)
(-0.00732900093030891 0 0)
(-0.007440071214356314 0 0)
(-0.007545045303077506 0 0)
(-0.007643043285533229 0 0)
(-0.007731976926996309 0 0)
(-0.007807782853721728 0 0)
(-0.007878059456405448 0 0)
(-0.007934506823511007 0 0)
(-0.007973144322002385 0 0)
(-0.008002505298305316 0 0)
(-0.008019868505517688 0 0)
(-0.008028948174637038 0 0)
(-0.008031345798394377 0 0)
(-0.008025725645471757 0 0)
(-0.008017215880508957 0 0)
(-0.0080055235641164 0 0)
(-0.007991202899472066 0 0)
(-0.007976545687024392 0 0)
(-0.007954454912459125 0 0)
(-0.007950769837811518 0 0)
(-0.007934519283398911 0 0)
(-0.00791859221208205 0 0)
(-0.007904772056377084 0 0)
(-0.007888679445853652 0 0)
(-0.007880086074504205 0 0)
(-0.00787733034544476 0 0)
(-0.007883910940076838 0 0)
(-0.007900038003490723 0 0)
(-0.00792435488610699 0 0)
(-0.007964582503489614 0 0)
(-0.008018308450731468 0 0)
(-0.008077894064873251 0 0)
(-0.008152707052486077 0 0)
(-0.00824142766763891 0 0)
(-0.008340097018729578 0 0)
(-0.00844929288333344 0 0)
(-0.008563010847719326 0 0)
(-0.008685783185252819 0 0)
(-0.008815087833040686 0 0)
(-0.008949146772429648 0 0)
(-0.009089834272716084 0 0)
(-0.009227617420299331 0 0)
(-0.009384599958013211 0 0)
(-0.009532454468364338 0 0)
(-0.009679918860559049 0 0)
(-0.009826734614396024 0 0)
(-0.009965348531834301 0 0)
(-0.01010263600989107 0 0)
(-0.01023417968629582 0 0)
(-0.01036053847854049 0 0)
(-0.01047873094360255 0 0)
(-0.01058468569855842 0 0)
(-0.01068135617527942 0 0)
(-0.01076879176463499 0 0)
(-0.01083618476749063 0 0)
(-0.01088954814704578 0 0)
(-0.01093253718330139 0 0)
(-0.01096305827200172 0 0)
(-0.01098668310304272 0 0)
(-0.01099872672727126 0 0)
(-0.01100579713705865 0 0)
(-0.01100819071182198 0 0)
(-0.01100588790552015 0 0)
(-0.01100219460861379 0 0)
(-0.01099156296804319 0 0)
(-0.01098938705056268 0 0)
(-0.01098553554801972 0 0)
(-0.01097800674443616 0 0)
(-0.01097115406298972 0 0)
(-0.01096104569984625 0 0)
(-0.01095674985885591 0 0)
(-0.01095744559353383 0 0)
(-0.01096722308130634 0 0)
(-0.01098659428542752 0 0)
(-0.01101560010581741 0 0)
(-0.01105661579903755 0 0)
(-0.01111742791238853 0 0)
(-0.01118344910445504 0 0)
(-0.0112639623547576 0 0)
(-0.01136305125369423 0 0)
(-0.01147090129433249 0 0)
(-0.01159184326259837 0 0)
(-0.01172015380811381 0 0)
(-0.01185579688759065 0 0)
(-0.01200068555175903 0 0)
(-0.01215093649084997 0 0)
(-0.01230784051820539 0 0)
(-0.01246557246163702 0 0)
(-0.01263203429606505 0 0)
(-0.01280325861904482 0 0)
(-0.01297093983120644 0 0)
(-0.0131371867174038 0 0)
(-0.01329672200039059 0 0)
(-0.01345349024990656 0 0)
(-0.01360550367291857 0 0)
(-0.01375241353494563 0 0)
(-0.01389266239329895 0 0)
(-0.01402298974043579 0 0)
(-0.01414051046618038 0 0)
(-0.01425217378536467 0 0)
(-0.01434391697332304 0 0)
(-0.01441958319954595 0 0)
(-0.01448468172469875 0 0)
(-0.01453419342573263 0 0)
(-0.01457569442686916 0 0)
(-0.01460728659507501 0 0)
(-0.01462714747118684 0 0)
(-0.01464304342352436 0 0)
(-0.01465291190090256 0 0)
(-0.01465906770589719 0 0)
(-0.01466062744495928 0 0)
(-0.01465933663541828 0 0)
(-0.0146673330830584 0 0)
(-0.01466682133184654 0 0)
(-0.01466609687066282 0 0)
(-0.01466320632153228 0 0)
(-0.01466280131682245 0 0)
(-0.01466784497804379 0 0)
(-0.01468000598764696 0 0)
(-0.01470288608463458 0 0)
(-0.01473610147599664 0 0)
(-0.01477935319809656 0 0)
(-0.01484308171431604 0 0)
(-0.01491653866750903 0 0)
(-0.01500224890864107 0 0)
(-0.01510728896981293 0 0)
(-0.01522294283632141 0 0)
(-0.01535227240089584 0 0)
(-0.0154938701031761 0 0)
(-0.01563908768079006 0 0)
(-0.01579608666963125 0 0)
(-0.01595974827371183 0 0)
(-0.01612932846173898 0 0)
(-0.01630365685174488 0 0)
(-0.01647810506338576 0 0)
(-0.01666798611024366 0 0)
(-0.01684835666747891 0 0)
(-0.01703181293714277 0 0)
(-0.01720858244144131 0 0)
(-0.01738052756440664 0 0)
(-0.01754867850019996 0 0)
(-0.01771044075922914 0 0)
(-0.01786752134074563 0 0)
(-0.01801559081283544 0 0)
(-0.01815101017083289 0 0)
(-0.01827839321568686 0 0)
(-0.01839342040526835 0 0)
(-0.01848718395422242 0 0)
(-0.01856854271017886 0 0)
(-0.0186358991995918 0 0)
(-0.01869236489342895 0 0)
(-0.01874028745458507 0 0)
(-0.01877357165221715 0 0)
(-0.01880043352084892 0 0)
(-0.01882183113648058 0 0)
(-0.01883713271315881 0 0)
(-0.01884912031785863 0 0)
(-0.01885305656576163 0 0)
(-0.01886697527970306 0 0)
(-0.01887459750720769 0 0)
(-0.01888071268053342 0 0)
(-0.01888477991830566 0 0)
(-0.01888952032675937 0 0)
(-0.01889921537568897 0 0)
(-0.01891493837460551 0 0)
(-0.01894163310170216 0 0)
(-0.01897960106220982 0 0)
(-0.01902782824756204 0 0)
(-0.01909323504830905 0 0)
(-0.01917629245518573 0 0)
(-0.01926715424547774 0 0)
(-0.0193772424442786 0 0)
(-0.01950304945479771 0 0)
(-0.01964110968261032 0 0)
(-0.01979269561536741 0 0)
(-0.01995218758925351 0 0)
(-0.02011906359877163 0 0)
(-0.0202964036760647 0 0)
(-0.02047899427750439 0 0)
(-0.02066816036497222 0 0)
(-0.02085667033185417 0 0)
(-0.02105729260332935 0 0)
(-0.02125436103165068 0 0)
(-0.02145503936117558 0 0)
(-0.02164844483142678 0 0)
(-0.0218370142457487 0 0)
(-0.0220217802749544 0 0)
(-0.02220002819515874 0 0)
(-0.02237262037486066 0 0)
(-0.02253826345122725 0 0)
(-0.02269190212547099 0 0)
(-0.02283434092118957 0 0)
(-0.02296941801956216 0 0)
(-0.02308079168467204 0 0)
(-0.0231785320240644 0 0)
(-0.02326406985778064 0 0)
(-0.02333473236165632 0 0)
(-0.02339550652277788 0 0)
(-0.02344559754712412 0 0)
(-0.02348186384109715 0 0)
(-0.02351488846468307 0 0)
(-0.0235412293118025 0 0)
(-0.02356422726288858 0 0)
(-0.02358045542424349 0 0)
(-0.02360030451502932 0 0)
(-0.02362071187660073 0 0)
(-0.02363966514311685 0 0)
(-0.0236560762365206 0 0)
(-0.02367217529869022 0 0)
(-0.02369315234088669 0 0)
(-0.02371893625516243 0 0)
(-0.02375293591683514 0 0)
(-0.02379923511369015 0 0)
(-0.02385540948065919 0 0)
(-0.02392297052721561 0 0)
(-0.02401048218959058 0 0)
(-0.02410277801759336 0 0)
(-0.02421020154168298 0 0)
(-0.02433399068228236 0 0)
(-0.02446577795234832 0 0)
(-0.02460874260412297 0 0)
(-0.0247601475535647 0 0)
(-0.02491150602348443 0 0)
(-0.02507148953641407 0 0)
(-0.02523570593095489 0 0)
(-0.02540293416848517 0 0)
(-0.02556870163469006 0 0)
(-0.0257398842864012 0 0)
(-0.02590681156266303 0 0)
(-0.02607846312172463 0 0)
(-0.02624254563435868 0 0)
(-0.02640135208158132 0 0)
(-0.02655638475936991 0 0)
(-0.02670503561658647 0 0)
(-0.02684699874827025 0 0)
(-0.02698483104018152 0 0)
(-0.02711333127546161 0 0)
(-0.02722941062372849 0 0)
(-0.02734003143881774 0 0)
(-0.02743228332986217 0 0)
(-0.02750904432649371 0 0)
(-0.0275755149176735 0 0)
(-0.02762614436492596 0 0)
(-0.02766776432928314 0 0)
(-0.02770084420082676 0 0)
(-0.02772156497612458 0 0)
(-0.02773638091140312 0 0)
(-0.0277480429271602 0 0)
(-0.02775585242121117 0 0)
(-0.02775904766006993 0 0)
(-0.02776375714373086 0 0)
(-0.02776451156117616 0 0)
(-0.02777256556040314 0 0)
(-0.02777490774088975 0 0)
(-0.02777757395440506 0 0)
(-0.02778274047202542 0 0)
(-0.02779188381432925 0 0)
(-0.02780653058356604 0 0)
(-0.02783269942083639 0 0)
(-0.02787002370254699 0 0)
(-0.02791670198526394 0 0)
(-0.02798231316934349 0 0)
(-0.02805963118949984 0 0)
(-0.02814748341115603 0 0)
(-0.02825512066757512 0 0)
(-0.02837367753982771 0 0)
(-0.02850559329695544 0 0)
(-0.02864800932663655 0 0)
(-0.02879768345856762 0 0)
(-0.02895134511078618 0 0)
(-0.02911500463301968 0 0)
(-0.02928287379628506 0 0)
(-0.02945353213915272 0 0)
(-0.02962698341896453 0 0)
(-0.02980094798734821 0 0)
(-0.02997850764003543 0 0)
(-0.03015218217477286 0 0)
(-0.03032057424214526 0 0)
(-0.03048456397241162 0 0)
(-0.0306436936282645 0 0)
(-0.03079559343498857 0 0)
(-0.03094201297532645 0 0)
(-0.03108262587902683 0 0)
(-0.03121040581302064 0 0)
(-0.03133015351818939 0 0)
(-0.03143944818622101 0 0)
(-0.03152660763232507 0 0)
(-0.03160348513737246 0 0)
(-0.03166669227468805 0 0)
(-0.03171804191472298 0 0)
(-0.03175962202523035 0 0)
(-0.03179224277171248 0 0)
(-0.03181174694892897 0 0)
(-0.03182933309234839 0 0)
(-0.03184261837962069 0 0)
(-0.03185228980168729 0 0)
(-0.03185767550752095 0 0)
(-0.03186551877604331 0 0)
(-0.03187351556301159 0 0)
(-0.03188095335889751 0 0)
(-0.03188635957446756 0 0)
(-0.03189336154359468 0 0)
(-0.03190497203303956 0 0)
(-0.03192064375560609 0 0)
(-0.03194451020431939 0 0)
(-0.03198181812764941 0 0)
(-0.03202863453838321 0 0)
(-0.03208946923894331 0 0)
(-0.03216940283934043 0 0)
(-0.03225462658486266 0 0)
(-0.03235943012813201 0 0)
(-0.03248099070751875 0 0)
(-0.03261303486927417 0 0)
(-0.03275712269688302 0 0)
(-0.03291144830357106 0 0)
(-0.03306865426916152 0 0)
(-0.03323544599364231 0 0)
(-0.033409230777383 0 0)
(-0.03358724238901493 0 0)
(-0.03376499579590988 0 0)
(-0.0339517623760125 0 0)
(-0.03412985055254203 0 0)
(-0.03431478226836174 0 0)
(-0.03449214473784626 0 0)
(-0.03466535941404728 0 0)
(-0.03483459639255117 0 0)
(-0.03499626864507199 0 0)
(-0.03515057701429519 0 0)
(-0.03530066963024642 0 0)
(-0.03544090338052397 0 0)
(-0.03556826071081982 0 0)
(-0.03569138925991642 0 0)
(-0.03579073802956487 0 0)
(-0.03587715709084247 0 0)
(-0.03595474319679592 0 0)
(-0.03601551589019926 0 0)
(-0.036067063571753 0 0)
(-0.0361085099754266 0 0)
(-0.03613863274312062 0 0)
(-0.03616080200336639 0 0)
(-0.03618044158645203 0 0)
(-0.03619620311679266 0 0)
(-0.03620563882299273 0 0)
(-0.03622131528253248 0 0)
(-0.03622534208282341 0 0)
(-0.0362400262494518 0 0)
(-0.03624817813258162 0 0)
(-0.03625846428837867 0 0)
(-0.03627255661643563 0 0)
(-0.03629076635504275 0 0)
(-0.03631501505812634 0 0)
(-0.03635147738946346 0 0)
(-0.03640052295426289 0 0)
(-0.03645919996409298 0 0)
(-0.03654046436869905 0 0)
(-0.03662801163173239 0 0)
(-0.03673038024154152 0 0)
(-0.03685526471911174 0 0)
(-0.03698896662463273 0 0)
(-0.03713643834544125 0 0)
(-0.03729389911981134 0 0)
(-0.03745971029790825 0 0)
(-0.03762907434391401 0 0)
(-0.03780838753136386 0 0)
(-0.03799359838854204 0 0)
(-0.03817865628114889 0 0)
(-0.03837435629401492 0 0)
(-0.03855535293274097 0 0)
(-0.03875147674957666 0 0)
(-0.0389371819751988 0 0)
(-0.03912034909249344 0 0)
(-0.03929880667865636 0 0)
(-0.03947121231906882 0 0)
(-0.03963511839744225 0 0)
(-0.03979266451453484 0 0)
(-0.0399445854899512 0 0)
(-0.04008235157540158 0 0)
(-0.04021511884907999 0 0)
(-0.04033087212159715 0 0)
(-0.04042623881636479 0 0)
(-0.04051513821401653 0 0)
(-0.0405869238024994 0 0)
(-0.04064823642722681 0 0)
(-0.04069854442935197 0 0)
(-0.04074000013084917 0 0)
(-0.04076768017481938 0 0)
(-0.04079352116945582 0 0)
(-0.04081536016076947 0 0)
(-0.04083234853385551 0 0)
(-0.04084806650055077 0 0)
(-0.04086248408705805 0 0)
(-0.04087777196936269 0 0)
(-0.04089140263259095 0 0)
(-0.04090585009905036 0 0)
(-0.04092359648968723 0 0)
(-0.04094624268780864 0 0)
(-0.0409734135387096 0 0)
(-0.04100965099741209 0 0)
(-0.04106049056429693 0 0)
(-0.04112094429539495 0 0)
(-0.04119912162388883 0 0)
(-0.04129118246357669 0 0)
(-0.04138993850993211 0 0)
(-0.04151187116824906 0 0)
(-0.04164487166937689 0 0)
(-0.04178968104328994 0 0)
(-0.04194430789629969 0 0)
(-0.04210756839698448 0 0)
(-0.04227272034745749 0 0)
(-0.04244580412795948 0 0)
(-0.04262428984053577 0 0)
(-0.04280669597403091 0 0)
(-0.04298776639401796 0 0)
(-0.04317263292249736 0 0)
(-0.04334783909938238 0 0)
(-0.04352966422733782 0 0)
(-0.04370325387311921 0 0)
(-0.04387337191625997 0 0)
(-0.04403812620384963 0 0)
(-0.04419456458293504 0 0)
(-0.0443435356305607 0 0)
(-0.04448728798758873 0 0)
(-0.04462197223233133 0 0)
(-0.04474499771138413 0 0)
(-0.04486167628176716 0 0)
(-0.0449537209998224 0 0)
(-0.04503800822687402 0 0)
(-0.04511033239056504 0 0)
(-0.04516820251030659 0 0)
(-0.04521629608409058 0 0)
(-0.04525455886680056 0 0)
(-0.04528222468098703 0 0)
(-0.0453028029784705 0 0)
(-0.04532078438547179 0 0)
(-0.04533758484857194 0 0)
(-0.04534813135823249 0 0)
(-0.04536609807313668 0 0)
(-0.04536614689575452 0 0)
(-0.04538277031302309 0 0)
(-0.04539313550460256 0 0)
(-0.04540746777161386 0 0)
(-0.04542545054110887 0 0)
(-0.04544775278801513 0 0)
(-0.04547636957758157 0 0)
(-0.04551665082946697 0 0)
(-0.04557087009452145 0 0)
(-0.04563510495476211 0 0)
(-0.04572171616585146 0 0)
(-0.04581096425713103 0 0)
(-0.04591972361780185 0 0)
(-0.04604928799867272 0 0)
(-0.046186581980233 0 0)
(-0.04633699676896548 0 0)
(-0.0464962771045286 0 0)
(-0.04666329118126563 0 0)
(-0.04683281784631594 0 0)
(-0.04701180569710026 0 0)
(-0.04719737399470072 0 0)
(-0.04738113840391406 0 0)
(-0.04758110154077898 0 0)
(-0.0477442248683811 0 0)
(-0.04793926620474651 0 0)
(-0.04811842367309713 0 0)
(-0.04829633907711017 0 0)
(-0.04846834716173373 0 0)
(-0.04863367825968237 0 0)
(-0.04878970028218245 0 0)
(-0.04893949615311837 0 0)
(-0.04908273555693002 0 0)
(-0.04921339404665158 0 0)
(-0.04933992358183289 0 0)
(-0.04944332226627237 0 0)
(-0.04953218784033613 0 0)
(-0.04961746331113628 0 0)
(-0.04968278859845018 0 0)
(-0.04973878171451619 0 0)
(-0.04978401096259171 0 0)
(-0.04982073535612946 0 0)
(-0.04984485786431928 0 0)
(-0.04986749748509099 0 0)
(-0.04988826711820589 0 0)
(-0.04990285460205665 0 0)
(-0.04992944433797894 0 0)
(-0.04992390364654985 0 0)
(-0.04994462545626915 0 0)
(-0.04995787537602955 0 0)
(-0.04997440516213105 0 0)
(-0.04999377448638398 0 0)
(-0.05001798516635725 0 0)
(-0.05004678159720028 0 0)
(-0.05008575042311019 0 0)
(-0.05013759713466889 0 0)
(-0.05020129354502286 0 0)
(-0.05028576786713324 0 0)
(-0.05037543699531755 0 0)
(-0.05047718203996347 0 0)
(-0.05060936967442509 0 0)
(-0.05074531100513583 0 0)
(-0.05089524422643849 0 0)
(-0.05105490588142765 0 0)
(-0.0512237796135163 0 0)
(-0.05139482369739205 0 0)
(-0.05157402345600257 0 0)
(-0.0517593547613604 0 0)
(-0.05194950731463051 0 0)
(-0.05214538627607675 0 0)
(-0.0523267503242833 0 0)
(-0.05250855928642872 0 0)
(-0.05269778332242882 0 0)
(-0.05287840172159396 0 0)
(-0.05305532934736353 0 0)
(-0.05322567293495221 0 0)
(-0.05338730483865627 0 0)
(-0.05354068463150948 0 0)
(-0.05368759587952006 0 0)
(-0.053825293905838 0 0)
(-0.05395507603732521 0 0)
(-0.05406976116201141 0 0)
(-0.05416135471863782 0 0)
(-0.05425482047467569 0 0)
(-0.05432831485893978 0 0)
(-0.05438948911285891 0 0)
(-0.05444051620101149 0 0)
(-0.05448237294565928 0 0)
(-0.05451269121174647 0 0)
(-0.05453681782359504 0 0)
(-0.05455897817128191 0 0)
(-0.05458082590740961 0 0)
(-0.05460039679289085 0 0)
(-0.05462133918905664 0 0)
(-0.05461970313299094 0 0)
(-0.05464362554497566 0 0)
(-0.05465985810300764 0 0)
(-0.05468154907983307 0 0)
(-0.05470686397292815 0 0)
(-0.05473703165982641 0 0)
(-0.05477344724096261 0 0)
(-0.05482291203821214 0 0)
(-0.05488449729098814 0 0)
(-0.0549608634972683 0 0)
(-0.05505511724867009 0 0)
(-0.05514922334476392 0 0)
(-0.05527016771901395 0 0)
(-0.0554058597213349 0 0)
(-0.05554864525189853 0 0)
(-0.05570286049784785 0 0)
(-0.05586538008873353 0 0)
(-0.05603207449498492 0 0)
(-0.05620272821582111 0 0)
(-0.05638019822305121 0 0)
(-0.05656550356594349 0 0)
(-0.05674837591534611 0 0)
(-0.05694278792455006 0 0)
(-0.05709222202435645 0 0)
(-0.05728009642543334 0 0)
(-0.05745213390168827 0 0)
(-0.0576217501585254 0 0)
(-0.05778502987233983 0 0)
(-0.05794050927929247 0 0)
(-0.0580861984414707 0 0)
(-0.05822656707955694 0 0)
(-0.05835750098443227 0 0)
(-0.05847918856982321 0 0)
(-0.0585964965657331 0 0)
(-0.0586860064071389 0 0)
(-0.05876871099547001 0 0)
(-0.05884691815105775 0 0)
(-0.05890453296608551 0 0)
(-0.05895340557053218 0 0)
(-0.05899268645540257 0 0)
(-0.05902227078977846 0 0)
(-0.05904314254369445 0 0)
(-0.05905977016222044 0 0)
(-0.05908079850367366 0 0)
(-0.05909553457845004 0 0)
(-0.0591279768595163 0 0)
(-0.05910525637345487 0 0)
(-0.05912966887115348 0 0)
(-0.05914530164490397 0 0)
(-0.05916419242793119 0 0)
(-0.05918663986498295 0 0)
(-0.0592128996930702 0 0)
(-0.05924430183759971 0 0)
(-0.05928524035398187 0 0)
(-0.05933915473640539 0 0)
(-0.05940389272743859 0 0)
(-0.05949270946529887 0 0)
(-0.05957884359481772 0 0)
(-0.05968291972482976 0 0)
(-0.05981920470865153 0 0)
(-0.05995494402145043 0 0)
(-0.06010483845746643 0 0)
(-0.06026412293012411 0 0)
(-0.06043166602170386 0 0)
(-0.06060184558092889 0 0)
(-0.06077780907991395 0 0)
(-0.06096464858822861 0 0)
(-0.06115422621504156 0 0)
(-0.06135968435841996 0 0)
(-0.06150975735778984 0 0)
(-0.06169893616676635 0 0)
(-0.06188093408475955 0 0)
(-0.06205829175950994 0 0)
(-0.06223063574844939 0 0)
(-0.06239538056232293 0 0)
(-0.06255126525240177 0 0)
(-0.06269754308748679 0 0)
(-0.06283875603891657 0 0)
(-0.06296616222970666 0 0)
(-0.06309402650716567 0 0)
(-0.06319372837755551 0 0)
(-0.06327811904788934 0 0)
(-0.06337278359265892 0 0)
(-0.06343844875311917 0 0)
(-0.06349528840994835 0 0)
(-0.06354138238445006 0 0)
(-0.06358004246363558 0 0)
(-0.06360517655570397 0 0)
(-0.06362764266223207 0 0)
(-0.06364847364833315 0 0)
(-0.06367238622844268 0 0)
(-0.06370086652698007 0 0)
(-0.06370223334485284 0 0)
(-0.06370929077213139 0 0)
(-0.06373123757940354 0 0)
(-0.06375097950766094 0 0)
(-0.06377561876800911 0 0)
(-0.06380417308520753 0 0)
(-0.06383679012279933 0 0)
(-0.06387637007260452 0 0)
(-0.06392870914203803 0 0)
(-0.06399198408965395 0 0)
(-0.06407471965488497 0 0)
(-0.06416789790842245 0 0)
(-0.06426641246588471 0 0)
(-0.06439905525636824 0 0)
(-0.06453633339195682 0 0)
(-0.06468609104489592 0 0)
(-0.06484566283729544 0 0)
(-0.06501507745628524 0 0)
(-0.06518661155883332 0 0)
(-0.06536564494203967 0 0)
(-0.06554870376952919 0 0)
(-0.06574669024876049 0 0)
(-0.06594367880881215 0 0)
(-0.06613334016825392 0 0)
(-0.06629294290445689 0 0)
(-0.06648596628255987 0 0)
(-0.06666628319897142 0 0)
(-0.06684374454597042 0 0)
(-0.06701564623113362 0 0)
(-0.06717758764274255 0 0)
(-0.06733073825055445 0 0)
(-0.06747499585816905 0 0)
(-0.06761164925119813 0 0)
(-0.06773500483449067 0 0)
(-0.06785794746095546 0 0)
(-0.06794862050170036 0 0)
(-0.06803627870807223 0 0)
(-0.0681161865970302 0 0)
(-0.06817875095008663 0 0)
(-0.06823120622149363 0 0)
(-0.06827457377456318 0 0)
(-0.06830796701688636 0 0)
(-0.06833242702582448 0 0)
(-0.06835485312390017 0 0)
(-0.06838171328887291 0 0)
(-0.06840857340095316 0 0)
(-0.06843966587592702 0 0)
(-0.06841996279168551 0 0)
(-0.06845111572768338 0 0)
(-0.06847122165603906 0 0)
(-0.06849708258082962 0 0)
(-0.06852795952513435 0 0)
(-0.06856274296748414 0 0)
(-0.06860318676970427 0 0)
(-0.06865236468316246 0 0)
(-0.06871414874622146 0 0)
(-0.06878547479942737 0 0)
(-0.06888458535133277 0 0)
(-0.06897639885992542 0 0)
(-0.06908845908197611 0 0)
(-0.06923159630613474 0 0)
(-0.06937204153063962 0 0)
(-0.06952442445022984 0 0)
(-0.06968434669912017 0 0)
(-0.06985143784600714 0 0)
(-0.07001579789134342 0 0)
(-0.07019225861994312 0 0)
(-0.0703706548796358 0 0)
(-0.07056159222543951 0 0)
(-0.07075072394161035 0 0)
(-0.07089214698690961 0 0)
(-0.07106783495484902 0 0)
(-0.07123444269786729 0 0)
(-0.07140080295805738 0 0)
(-0.07155895797099665 0 0)
(-0.07171148477094955 0 0)
(-0.07185439340814895 0 0)
(-0.07198863287363484 0 0)
(-0.07211370095600836 0 0)
(-0.072226368407719 0 0)
(-0.07233691115047432 0 0)
(-0.07242166821615395 0 0)
(-0.07249904946786766 0 0)
(-0.07258308441047995 0 0)
(-0.07263773866298158 0 0)
(-0.0726855298098312 0 0)
(-0.07272284935712592 0 0)
(-0.07275516830353483 0 0)
(-0.07277208344830535 0 0)
(-0.07279202405174098 0 0)
(-0.07280571704135398 0 0)
(-0.07283244823519693 0 0)
(-0.07285286258285882 0 0)
(-0.07285153250367242 0 0)
(-0.07285267364626287 0 0)
(-0.07286697073900986 0 0)
(-0.07289244564525207 0 0)
(-0.07292191272723117 0 0)
(-0.07295261052369914 0 0)
(-0.07298259103554873 0 0)
(-0.07302294090197899 0 0)
(-0.07310361356135754 0 0)
(-0.073240268678562 0 0)
(-0.07326898333771567 0 0)
(-0.07337558754042994 0 0)
)
;

boundaryField
{
    inlet
    {
        type            calculated;
        value           uniform (-0.001135214947749856 0 0);
    }
    outlet
    {
        type            calculated;
        value           uniform (-0.07337558754042994 0 0);
    }
    frontAndBack
    {
        type            empty;
    }
}


// ************************************************************************* //
