/*--------------------------------*- C++ -*----------------------------------*\
| =========                 |                                                 |
| \\      /  F ield         | OpenFOAM: The Open Source CFD Toolbox           |
|  \\    /   O peration     | Version:  v2012                                 |
|   \\  /    A nd           | Website:  www.openfoam.com                      |
|    \\/     M anipulation  |                                                 |
\*---------------------------------------------------------------------------*/
FoamFile
{
    version     2.0;
    format      ascii;
    class       volScalarField;
    location    "0.008";
    object      p;
}
// * * * * * * * * * * * * * * * * * * * * * * * * * * * * * * * * * * * * * //

dimensions      [1 -1 -2 0 0 0 0];


internalField   nonuniform List<scalar> 
1000
(
101310.943836165
101313.5824603082
101306.8405712364
101301.5397904669
101295.6992942264
101290.4571242193
101285.9446085368
101282.0845840535
101278.7726087693
101276.543636125
101275.9384028649
101275.9585606309
101276.3282766782
101277.3489751649
101279.3296437798
101282.3342029081
101286.2506113511
101290.9036507107
101296.146929855
101301.8780471362
101308.0127631588
101314.4604443095
101321.1147195084
101327.8536505031
101334.543803184
101341.0498865483
101347.2538445906
101353.0828502986
101358.5295375082
101363.6113240372
101368.175686341
101371.5682283492
101373.0176717597
101373.181194561
101373.1177052551
101372.8506701717
101372.1110579692
101370.657220186
101368.2825054109
101364.8921034573
101360.5266404452
101355.3395418321
101349.5344327079
101343.3020742504
101336.7908275243
101330.1139083821
101323.371679926
101316.6672835271
101310.1062943971
101303.7780356621
101297.7265677531
101291.9493701346
101286.497939139
101281.7455947721
101278.5842653314
101277.5075331351
101277.4345664839
101277.4765498795
101277.7359636315
101278.3781046782
101279.6272027372
101281.675419619
101284.6592676627
101288.6220262114
101293.5016553192
101299.145438158
101305.3487772115
101311.9025895441
101318.6283172222
101325.3885152038
101332.0805435469
101338.6323275394
101345.007749507
101351.2053655203
101357.2195279541
101362.9223290569
101367.8250812896
101370.9812342835
101372.018480826
101372.0940218491
101372.0379447806
101371.8326446307
101371.2866120489
101370.2249824342
101368.4623460908
101365.8474690907
101362.2898433417
101357.7835282803
101352.4132244883
101346.3398982768
101339.7710031579
101332.9238601248
101325.9904320078
101319.1119484586
101312.3699310379
101305.7928723258
101299.3755956426
101293.1299103667
101287.2274952017
101282.2687741489
101279.2679081982
101278.3942412102
101278.3499102871
101278.3863728904
101278.5942115042
101279.0993987498
101280.0780170866
101281.69559439
101284.0975786097
101287.3836737769
101291.5882101178
101296.6670257937
101302.4982156608
101308.9005448016
101315.6650322971
101322.5894724468
101329.5084219618
101336.3154723185
101342.9712304246
101349.4830815157
101355.8384549865
101361.8614911104
101366.9726963548
101370.1764806504
101371.2015869451
101371.2798928582
101371.237366792
101371.0794922098
101370.6527814994
101369.8135695514
101368.401804464
101366.2708835447
101363.3048169877
101359.4390010966
101354.6753168394
101349.0883615494
101342.8205725295
101336.0638057403
101329.0271664027
101321.898764218
101314.8154389476
101307.8518396243
101301.0362647782
101294.4133238118
101288.2030272726
101283.0637303067
101280.0139706831
101279.1359437018
101279.0863391976
101279.1137394542
101279.2778428374
101279.6853768622
101280.4838472117
101281.8175836803
101283.8234507816
101286.612851096
101290.2557042742
101294.7651958729
101300.0889850861
101306.1117203096
101312.6693932195
101319.5727070974
101326.6369521064
101333.7138647797
101340.7128178598
101347.5919187096
101354.298316635
101360.6272385796
101365.9833716093
101369.3684069022
101370.4945279408
101370.5947424364
101370.5641445309
101370.4458233171
101370.1091813156
101369.4312588244
101368.2705813287
101366.4910866719
101363.973287576
101360.6301016557
101356.4207314199
101351.3612460352
101345.5295588023
101339.0605396405
101332.1275987112
101324.9135914703
101317.5807559583
101310.2507847545
101303.0081438382
101295.9545633445
101289.3658755356
101283.9474841329
101280.7316263116
101279.7789610638
101279.7136880143
101279.7342272943
101279.8650013254
101280.1971150803
101280.8587765174
101281.9783542557
101283.6830266469
101286.0848740474
101289.2683999463
101293.2772009492
101298.1037748801
101303.6861115471
101309.9121255207
101316.6317816963
101323.6779538083
101330.8943070047
101338.1589984344
101345.3844894158
101352.4700430283
101359.1724406216
101364.8752201423
101368.5588328208
101369.8620265754
101370.0009523399
101369.9793245227
101369.8900434837
101369.6214347118
101369.0668806941
101368.1001861079
101366.5956556908
101364.4358807599
101361.5243679088
101357.7971317153
101353.2331943354
101347.8625701096
101341.7678759065
101335.0755458766
101327.9374841971
101320.5089413587
101312.9299617106
101305.3232153299
101297.839813795
101290.8081040055
101284.9845593951
101281.4607163162
101280.3604130655
101280.26915743
101280.2825110716
101280.3849634542
101280.6558008839
101281.2092472176
101282.1600188945
101283.625126664
101285.7130189721
101288.5139837584
101292.088873793
101296.4593590929
101301.6023589658
101307.4494317496
101313.8918365904
101320.7936465719
101328.0126674801
101335.4203315317
101342.9039912704
101350.3293784856
101357.4256742692
101363.5624836228
101367.6786200181
101369.2619908924
101369.4675082472
101369.4538527488
101369.3892320743
101369.1760012447
101368.7205306908
101367.9089007452
101366.6257023777
101364.7586656363
101362.2085291216
101358.8984503976
101354.7835762752
101349.8596367678
101344.1673562494
101337.7894558471
101330.8404626951
101323.4524475251
101315.7610789149
101307.903442874
101300.0587618171
101292.5866949592
101286.272872337
101282.283884836
101280.9159365482
101280.7715243065
101280.7794651737
101280.8584672185
101281.0781644266
101281.5412775744
101282.3521314331
101283.6192692105
101285.4464728578
101287.925126332
101291.1251148705
101295.0865824338
101299.8140620975
101305.2733138393
101311.3920576439
101318.0675226496
101325.1810150829
101332.6124910635
101340.2423591228
101347.9216530997
101355.3727050739
101361.9768576626
101366.6446178397
101368.6469323757
101368.9737525655
101368.9686172879
101368.9254141912
101368.7586428858
101368.3864327504
101367.7041444651
101366.605153209
101364.982998377
101362.7390952374
101359.7901595489
101356.0764195267
101351.5696689325
101346.2786418924
101340.2493948345
101333.5607681863
101326.3164140234
101318.635784111
101310.6536182819
101302.5557641442
101294.702589725
101287.8662375104
101283.2714212865
101281.4874323371
101281.2427816621
101281.2442106871
101281.302033337
101281.4766188356
101281.8615260562
101282.552737276
101283.6514756631
101285.2566489242
101287.4587096428
101290.3322202044
101293.9290528697
101298.2728861839
101303.3550036067
101309.1327618004
101315.5335188723
101322.4640652384
101329.8201294283
101337.487011804
101345.3164200347
101353.0436154576
101360.0922597427
101365.3871979531
101367.962633137
101368.4994507278
101368.5124770233
101368.4857825273
101368.3587521217
101368.0580558692
101367.4869043944
101366.5458167136
101365.1336244975
101363.1537441733
101360.5200172378
101357.1636041201
101353.0400002948
101348.1343713637
101342.4638151294
101336.0765720944
101329.0485030052
101321.4780023541
101313.4872052142
101305.252725593
101297.1109796545
101289.7792150834
101284.4892744031
101282.1246385915
101281.6980828139
101281.6902889717
101281.7282609805
101281.8626519241
101282.1778955848
101282.7635034038
101283.7149630397
101285.1267022235
101287.0872520144
101289.6732900345
101292.9441058077
101296.9365703989
101301.6606330954
101307.0968142708
101313.1978615057
101319.894219532
101327.0995242005
101334.7105228374
101342.5897522847
101350.4986304277
101357.9256909327
101363.8606192653
101367.1444030534
101368.0204767848
101368.0750978173
101368.0597810004
101367.966839411
101367.7288820377
101367.2552785379
101366.4526071232
101365.2241947762
101363.4758751839
101361.1205334914
101358.0838874022
101354.3105734531
101349.768944414
101344.4539710283
101338.3888070663
101331.6246227953
101324.2383703204
101316.334680088
101308.0714206302
101299.7466678223
101291.9947624601
101285.9891996294
101282.8874214524
101282.15496978
101282.1196394031
101282.1442314413
101282.2426166904
101282.4962674317
101282.9876838991
101283.8078979502
101285.0475837741
101286.7933141113
101289.1226945562
101292.099772486
101295.7704535892
101300.1581798776
101305.2612105177
101311.0527869659
101317.4836106845
101324.4845916203
101331.9667395102
101339.8086270206
101347.8037546435
101355.5164685401
101362.0449192187
101366.1284765732
101367.5047442012
101367.6493805563
101367.6422989936
101367.5787654744
101367.395956243
101367.0087952392
101366.3287231039
101365.263157077
101363.7204501684
101361.6137090674
101358.8656258751
101355.4135266465
101351.2135755841
101346.2441128714
101340.5086124656
101334.0373154078
101326.8868361876
101319.1428628243
101310.9411612034
101302.5364765086
101294.4675693672
101287.7936500869
101283.8438297205
101282.6430083867
101282.5387229195
101282.5540954971
101282.6225275519
101282.821648862
101283.2283419426
101283.9298805218
101285.0139227004
101286.5654816054
101288.662539901
101291.372285537
101294.7470200697
101298.8199641915
101303.6025069605
101309.0838648889
101315.2319048748
101321.9935686567
101329.2941009865
101337.0286951187
101345.0233166158
101352.9186524553
101359.9460428762
101364.8530218764
101366.903972287
101367.2315520724
101367.2362984372
101367.1935246393
101367.057021766
101366.7446356525
101366.1733299415
101365.2537352424
101363.8965072714
101362.0153061995
101359.5308738213
101356.3751728368
101352.4954404161
101347.8579588632
101342.4512211864
101336.2879839197
101329.4066325133
101321.8752327525
101313.8076974681
101305.4151088556
101297.1394380297
101289.8934494338
101285.0542538915
101283.2057944449
101282.9557639564
101282.9592076657
101283.0046463759
101283.1548524812
101283.4852314077
101284.0792854603
101285.0221105712
101286.397141324
101288.2824180072
101290.7470474563
101293.8475745229
101297.6245548791
101302.0999523172
101307.2756562061
101313.1329469869
101319.6326388734
101326.7146073218
101334.2908745919
101342.2158897272
101350.1983840464
101357.6077923374
101363.2886054803
101366.1541077184
101366.8010192674
101366.8280732143
101366.8053889432
101366.7080542488
101366.4629012483
101365.9899154199
101365.2028328061
101364.0141341684
101362.3381454253
101360.0947386703
101357.2128081979
101353.633435523
101349.3135212601
101344.2297283837
101338.3811198502
101331.7904873747
101324.5084614863
101316.6277382176
101308.3220984674
101299.9484446587
101292.2619440131
101286.5682215255
101283.9008696131
101283.3746356437
101283.3620821902
101283.385951415
101283.4975093488
101283.7610315754
101284.2584769409
101285.0723549211
101286.2848673101
101287.974063134
101290.2108411999
101293.0553689067
101296.5537174667
101300.7356386932
101305.6131544712
101311.1790169489
101317.405590493
101324.2446914279
101331.6235006703
101339.4223972075
101347.4076180824
101355.0740892287
101361.4209023531
101365.1851994855
101366.3341787268
101366.4347956963
101366.4199751441
101366.355064299
101366.1656640812
101365.7784681474
101365.1095483224
101364.0737048181
101362.5862588932
101360.5664021044
101357.9402877951
101354.6443421326
101350.6286892717
101345.8604579349
101340.3267202468
101334.0373199953
101327.0290576936
101319.3756546765
101311.2162122223
101302.8342177684
101294.8394718995
101288.3931232446
101284.8005234185
101283.8250553862
101283.7581984294
101283.7725077715
101283.8485462802
101284.0530863813
101284.4629682192
101285.1589415753
101286.2221656305
101287.7306427543
101289.7561759944
101292.3613266678
101295.596610316
101299.4981567341
101304.0857430598
101309.361216134
101315.3076140084
101321.8884431303
101329.0437819826
101336.6746287175
101344.595108017
101352.4095999683
101359.2881333088
101363.9462828923
101365.7755186979
101366.0360125661
101366.033379875
101365.9922484337
101365.8522128622
101365.5420992616
101364.9810239764
101364.0854011497
101362.7714183186
101360.9581964058
101358.5703624777
101355.5408682695
101351.8145339484
101347.3514762244
101342.1295449234
101336.1469053079
101329.4269428815
101322.027247367
101314.0597330267
101305.7478519949
101297.5727779441
101290.5154840543
101285.9684921676
101284.3476729604
101284.1534715016
101284.1560038608
101284.208520292
101284.3624440414
101284.6953124137
101285.2843695385
101286.2096827129
101287.5492100735
101289.3759681925
101291.7548489884
101294.7400332178
101298.3729398361
101302.680074012
101307.6708957474
101313.3368443241
101319.6511516274
101326.5657838001
101333.9992237606
101341.8020886886
101349.6660999841
101356.9276542599
101362.4027316213
101365.0659688809
101365.6284819684
101365.6467877937
101365.6256153843
101365.5242620459
101365.2803845597
101364.814991502
101364.0469353478
101362.8933883961
101361.2732725895
101359.1098027624
101356.3333499048
101352.8844722464
101348.7169501155
101343.8007442282
101338.1251560763
101331.7028043694
101324.5762039097
101316.8333307578
101308.6506260271
101300.4044178193
101292.8911876167
101287.4422433558
101284.9984292283
101284.5511809565
101284.5420451687
101284.5712190877
101284.6833869914
101284.9477465041
101285.4401155502
101286.2393871425
101287.42328554
101289.0653824845
101291.2321334343
101293.9806222332
101297.3565661148
101301.3918960013
101306.1025773616
101311.4878483607
101317.5298660319
101324.1906280791
101331.4029228876
101339.0470147224
101346.884583635
101354.3971148923
101360.562486179
101364.1385969098
101365.1835793475
101365.26694486
101365.257977111
101365.1886428554
101365.0028861936
101364.6228900751
101363.9701544087
101362.9629072749
101361.5204374214
101359.5654477592
101357.026644275
101353.8413961327
101349.9585991098
101345.3417053435
101339.9718481785
101333.8514262331
101327.0097248853
101319.5151017449
101311.5064993677
101303.2765041127
101295.4568206154
101289.229709317
101285.8547530739
101284.9840672629
101284.9307913574
101284.9455831438
101285.0225797117
101285.2261496112
101285.630276943
101286.3124080842
101287.3500911655
101288.8175425943
101290.782964886
101293.3061251367
101296.4361030871
101300.2092207788
101304.647353095
101309.7566901815
101315.5265305709
101321.9271208298
101328.904109224
101336.3618895212
101344.1144380572
101351.759849243
101358.4579065929
101362.9361802305
101364.6505400034
101364.8836027676
101364.8815521865
101364.8389943178
101364.701539911
101364.3976516622
101363.8501165354
101362.9787490559
101361.7032314897
101359.9455051451
101357.6326083093
101354.6994413777
101351.0910122511
101346.7649569947
101341.6952765267
101335.8764669184
101329.3274700054
101322.099864853
101314.301976036
101306.1616638865
101298.171575762
101291.3207253179
101286.9757585105
101285.473304974
101285.303437081
101285.3128439474
101285.3608555402
101285.5157553313
101285.8439221942
101286.4223703999
101287.3275203519
101288.6337279352
101290.4102244023
101292.7190310296
101295.6126460585
101299.1316071915
101303.3028169779
101308.1386954039
101313.6357941802
101319.7720751703
101326.5028342607
101333.750376873
101341.3694808562
101349.0517817337
101356.1297920916
101361.4295985495
101363.9717065439
101364.4980658353
101364.5168162636
101364.490178262
101364.3925257465
101364.1521670666
101363.6968801505
101362.9475547481
101361.8247510777
101360.2505101133
101358.150841906
101355.458158546
101352.1138598346
101348.0711133281
101343.2978687329
101337.7802329447
101331.5267965789
101324.576008044
101317.0130593501
101309.0142246357
101300.9590677351
101293.648512728
101288.4012096424
101286.0975474912
101285.6920891426
101285.685623582
101285.7145452033
101285.8260969137
101286.0862807136
101286.5688991857
101287.3499636779
101288.5040505536
101290.1016365666
101292.2066100343
101294.8740624478
101298.148302923
101302.0610689147
101306.6299731335
101311.8571617457
101317.7277712227
101324.2068263412
101331.2308592834
101338.6835864853
101346.3278354497
101353.6461324109
101359.6289378752
101363.0734519448
101364.0687215388
101364.1509514183
101364.1523158321
101364.0909834221
101363.9036379041
101363.5130429366
101362.8418290801
101361.8175386863
101360.3764206528
101358.4640353342
101356.0320120671
101353.0324508464
101349.4133917923
101345.1178760589
101340.0874498791
101334.2695050662
101327.6332520327
101320.2019874877
101312.0602810557
101303.4751839917
101294.9750309932
101287.9588199802
101284.058356778
101281.8150364479
101280.1563586085
101278.9607716812
101278.007324449
101277.2457969008
101276.7870920649
101276.7368806818
101277.1101667855
101277.9084225714
101279.2142063193
101281.1063997303
101283.6604340261
101286.9466603221
101291.0395349452
101296.0120684561
101301.9264999416
101308.8267168834
101316.7336421087
101325.527275784
101334.8716892722
101344.3351417394
101352.7319933882
101358.5293038735
101362.5640915043
101365.6351069396
101367.7857116216
101369.3971012978
101370.6868439936
101371.7457655913
101372.6154605357
101373.1354026924
101373.2217922021
101372.9210553565
101372.0961528046
101370.5420807021
101368.0575160875
101364.4737871125
101359.6806469836
101353.6101144065
101346.2236499322
101337.4998393428
101327.6413844105
101317.1594446234
101306.7442513867
101297.8375037055
101291.5454831829
101286.6810564127
101283.1240078955
101280.6884023189
101278.9855346168
101277.8214063196
101277.0812900975
101276.7406724646
101276.8606470169
101277.4626060947
101278.5738302917
101280.2389261336
101282.4981343377
101285.4091573895
101289.0626020318
101293.5656293305
101299.0112954385
101305.4500470759
101312.8779887135
101321.2404983831
101330.2454688247
101339.3485307124
101347.9484967348
101354.9200482449
101359.7040786213
101363.4915918696
101366.2757658308
101368.2371535281
101369.6307147789
101370.6267981878
101371.3619907631
101371.7598765047
101371.774956233
101371.4718176192
101370.7680464825
101369.5324852854
101367.5745889009
101364.6705467992
101360.6102872093
101355.2286308166
101348.4190099086
101340.1872074256
101330.7257268576
101320.5326798813
101310.1139357061
101300.548150749
101293.1517146402
101287.7163736407
101283.381304335
101280.326001678
101278.2576382958
101276.9405076737
101276.2005251118
101275.9037929236
101276.0536017063
101276.6298231127
101277.6221636743
101279.1227268121
101281.1926150144
101283.8967429753
101287.3047726226
101291.4889015534
101296.5143335275
101302.4381016883
101309.2664171711
101317.1316146427
101325.2127994048
101336.9269198337
)
;

boundaryField
{
    inlet
    {
        type            uniformFixedValue;
        uniformValue    sine;
        uniformValueCoeffs
        {
            frequency       constant 3000;
            scale           constant 50;
            level           constant 101325;
        }
        value           uniform 101323.6440830864;
    }
    outlet
    {
        type            waveTransmissive;
        gamma           1.4;
        fieldInf        101325;
        lInf            2.25;
        value           uniform 101338.9253857232;
    }
    frontAndBack
    {
        type            empty;
    }
}


// ************************************************************************* //
