/*--------------------------------*- C++ -*----------------------------------*\
| =========                 |                                                 |
| \\      /  F ield         | OpenFOAM: The Open Source CFD Toolbox           |
|  \\    /   O peration     | Version:  v2012                                 |
|   \\  /    A nd           | Website:  www.openfoam.com                      |
|    \\/     M anipulation  |                                                 |
\*---------------------------------------------------------------------------*/
FoamFile
{
    version     2.0;
    format      ascii;
    class       volScalarField;
    location    "0.008";
    object      pMean;
}
// * * * * * * * * * * * * * * * * * * * * * * * * * * * * * * * * * * * * * //

dimensions      [1 -1 -2 0 0 0 0];


internalField   nonuniform List<scalar> 
1000
(
101325.0314925566
101325.0047315037
101325.0221512168
101325.0386183748
101325.0619230541
101325.0900284878
101325.1213696522
101325.1584486172
101325.1980169341
101325.2410308383
101325.2851270117
101325.329319889
101325.3732872013
101325.4167208806
101325.4588392346
101325.4988508457
101325.5357717751
101325.5689828941
101325.5977135243
101325.6216483432
101325.6402049014
101325.6531951514
101325.6602385145
101325.661332496
101325.6563167301
101325.6454051824
101325.6286906019
101325.60659718
101325.5793464207
101325.5473755187
101325.5109179932
101325.4707266335
101325.4281078299
101325.3848182034
101325.3414760224
101325.2983015727
101325.2555344087
101325.2137036096
101325.1735110848
101325.1358319876
101325.1015513802
101325.0714925536
101325.0463156749
101325.0265054991
101325.0123976848
101325.0042025279
101325.0020378997
101325.0059285439
101325.0158009168
101325.0314869291
101325.0527617632
101325.0793881922
101325.1111230221
101325.14757401
101325.1878117431
101325.2301305202
101325.2729414913
101325.3157432098
101325.3583925811
101325.4007057713
101325.4421716553
101325.4822650226
101325.5201300053
101325.5549990028
101325.5859197989
101325.6122239601
101325.6332027345
101325.6485280811
101325.6578459158
101325.6611580741
101325.6583685369
101325.6496583873
101325.6350699317
101325.6148577584
101325.5890873254
101325.558039634
101325.5220281996
101325.4821938606
101325.4402772184
101325.3979462727
101325.3555813781
101325.3133494282
101325.2714208429
101325.2301803613
101325.1901415188
101325.1520107327
101325.1165651557
101325.0846730024
101325.0571389235
101325.0346968519
101325.01788499
101325.0070861478
101325.0024635617
101325.0040649212
101325.0117911011
101325.0255313352
101325.0451172771
101325.0704419019
101325.1012937861
101325.1372018665
101325.1769284746
101325.2185401998
101325.2605234956
101325.3025087313
101325.3443570973
101325.385954046
101325.426872753
101325.4667262934
101325.504789359
101325.5404166308
101325.5727050796
101325.6009381856
101325.6242813214
101325.6422202128
101325.6542200746
101325.6601311644
101325.6597705978
101325.653282158
101325.6406779961
101325.6221871774
101325.5978392271
101325.5679106733
101325.5327668241
101325.4936753935
101325.4524899285
101325.410894008
101325.3692528772
101325.3277287928
101325.2864260884
101325.2456782678
101325.2058752908
101325.1676236178
101325.1315723328
101325.098535486
101325.0692811994
101325.0446311284
101325.0252325215
101325.0116673036
101325.0042576803
101325.0032289427
101325.0085705891
101325.0202570256
101325.0381319774
101325.06210709
101325.0919123548
101325.1270213688
101325.1660479264
101325.2069961677
101325.2483096333
101325.2896382358
101325.3308499478
101325.3718667663
101325.4123252998
101325.4519186027
101325.4900169791
101325.5260754206
101325.5592616004
101325.5889065992
101325.6141456037
101325.6343939181
101325.6489784686
101325.6575902436
101325.6598885327
101325.6558792104
101325.6454857924
101325.6288900492
101325.606111322
101325.5774558382
101325.5433276576
101325.5050626733
101325.4645613037
101325.4235915278
101325.382558804
101325.3416281063
101325.3008580437
101325.2605412819
101325.2209869623
101325.1827250361
101325.1463070148
101325.1124785756
101325.0819449542
101325.0555341707
101325.0339256052
101325.0178214121
101325.0076753725
101325.0038940559
101325.006614553
101325.0159523419
101325.0318269679
101325.0541903107
101325.0827493269
101325.1169191627
101325.1552128277
101325.1955481172
101325.2362838677
101325.2770530275
101325.3177168689
101325.3582372748
101325.3982855025
101325.4376221526
101325.4756872928
101325.5120151921
101325.5458467441
101325.5765643503
101325.6033271322
101325.6255233712
101325.6424107343
101325.6535700467
101325.6585167996
101325.6571184918
101325.6491604078
101325.6347350384
101325.6138010604
101325.5866523006
101325.5537075105
101325.516329854
101325.4764850018
101325.4360620132
101325.3955577616
101325.3551429121
101325.3148440482
101325.2749221326
101325.2356193359
101325.1974124505
101325.1607664325
101325.1263663065
101325.0948502288
101325.06702114
101325.0435588021
101325.0252199738
101325.0125486401
101325.0060892051
101325.0061232193
101325.0129215809
101325.0265196857
101325.0469622898
101325.0739865198
101325.107011313
101325.1444913376
101325.1842379481
101325.2244650011
101325.26473698
101325.3049197763
101325.3449946281
101325.3846708451
101325.4237546069
101325.4617446299
101325.4982402592
101325.53254712
101325.5641030741
101325.5921033494
101325.615940096
101325.6348432715
101325.6483208651
101325.6557875376
101325.6569813304
101325.6515630666
101325.6395044513
101325.620677182
101325.5953105451
101325.563781686
101325.5274270187
101325.488257075
101325.4483383204
101325.4083090611
101325.3683591872
101325.3284886631
101325.2889323266
101325.2498838968
101325.2117690575
101325.1749886947
101325.1401673678
101325.107883093
101325.0789002918
101325.0538794891
101325.033597951
101325.018652567
101325.0096839094
101325.0070909689
101325.011285216
101325.0224288065
101325.0406843115
101325.0658705878
101325.0974728155
101325.1339691344
101325.1730915505
101325.212847495
101325.2526692306
101325.292416877
101325.3320832876
101325.3714162909
101325.4102513461
101325.448143832
101325.4847391953
101325.5194062947
101325.5516287478
101325.5806474311
101325.6058707371
101325.626526868
101325.6420803334
101325.6518803435
101325.6555640393
101325.652685996
101325.6430981049
101325.6265751312
101325.6032455096
101325.5734036373
101325.5382762909
101325.4998681479
101325.4604398492
101325.4208498751
101325.3813288789
101325.3418580265
101325.3026476602
101325.2638514584
101325.2258553616
101325.1890025764
101325.1538694328
101325.1209749915
101325.0910456856
101325.0647087864
101325.0427440525
101325.0257719145
101325.0144961799
101325.0094037133
101325.0110191256
101325.0196228472
101325.0354965345
101325.0585694248
101325.0884504168
101325.1237331618
101325.1621442164
101325.2014372203
101325.2408400331
101325.2801782531
101325.3194625303
101325.3584662953
101325.3970574462
101325.4348318677
101325.471479473
101325.5064194776
101325.5391806024
101325.569047722
101325.5954524747
101325.6176354522
101325.6350388865
101325.64697414
101325.6530028006
101325.6525988016
101325.6455077455
101325.6314120236
101325.6103278305
101325.5824346258
101325.548783515
101325.5112844589
101325.4723654938
101325.433193269
101325.3940735632
101325.3549864924
101325.3161060956
101325.2775684524
101325.2397064491
101325.2028346732
101325.1674663632
101325.1340880924
101325.1033687048
101325.0759175205
101325.0524873252
101325.0337179544
101325.020338173
101325.0129060393
101325.0120223668
101325.0180745644
101325.0314453659
101325.0521908869
101325.0800696366
101325.1138774034
101325.1514276543
101325.1902393258
101325.2292378834
101325.2681861251
101325.3070989926
101325.3457848192
101325.3841267
101325.4217693049
101325.4584269102
101325.4935764031
101325.5267730538
101325.5573560223
101325.5847717565
101325.6082918757
101325.6273413018
101325.6412211854
101325.6494333159
101325.6513994742
101325.6467736596
101325.6351613937
101325.616467058
101325.5907433836
101325.5588256588
101325.5224337337
101325.4840914579
101325.4453265207
101325.4065960537
101325.3678791983
101325.3293284585
101325.291051348
101325.2533475928
101325.2164927014
101325.1809591379
101325.1471899081
101325.1158143652
101325.0874079499
101325.062702547
101325.0423335926
101325.0270463591
101325.0174383074
101325.0141700039
101325.0177076423
101325.028524401
101325.0467927783
101325.0724334904
101325.1044910866
101325.1409770853
101325.1792487528
101325.2178523638
101325.2564215176
101325.2949731024
101325.3333405342
101325.3714298275
101325.4089195683
101325.4455554339
101325.4808556294
101325.5144091751
101325.5455961412
101325.5738875796
101325.5985816369
101325.6191027249
101325.6347490305
101325.6449859534
101325.6491981127
101325.6469694089
101325.6378431776
101325.6216220863
101325.5982389581
101325.5682933902
101325.5332478595
101325.4955950617
101325.4572483094
101325.4188937232
101325.380543306
101325.3423187908
101325.3043121376
101325.2667828832
101325.2299830166
101325.1943370577
101325.1602605087
101325.1283336251
101325.0991103378
101325.0732857457
101325.0514947885
101325.0344742795
101325.0228557536
101325.017328494
101325.0184280238
101325.0266907284
101325.0424007552
101325.0656252389
101325.0956779661
101325.1308515789
101325.1684748811
101325.2066773576
101325.2448759075
101325.2830688626
101325.321115585
101325.3589427495
101325.3962593968
101325.4328423237
101325.4682431007
101325.5020869205
101325.5337842047
101325.5628391613
101325.5885673393
101325.6104109931
101325.6276606775
101325.6397739426
101325.6460967433
101325.6461781266
101325.6394935951
101325.6257810718
101325.604844069
101325.5770846682
101325.5436391816
101325.506857818
101325.4689522707
101325.4309698444
101325.3929744076
101325.355079754
101325.31735015
101325.2800188121
101325.2433058448
101325.2076007079
101325.1732843708
101325.140899932
101325.1109716234
101325.084164999
101325.0611013176
101325.0425084056
101325.0290320567
101325.0213812362
101325.0201373137
101325.0258887847
101325.0390106169
101325.059701787
101325.0875304548
101325.1211251867
101325.1579362592
101325.1957103732
101325.2335436187
101325.2713751517
101325.3091031334
101325.3466515095
101325.3837831398
101325.4202761107
101325.4557405278
101325.4898058726
101325.5219410058
101325.5516517983
101325.5783033366
101325.6013277808
101325.6200466554
101325.633886942
101325.6421991618
101325.6444781293
101325.6401778685
101325.6289534988
101325.6105278941
101325.5850967389
101325.5535013125
101325.5178057799
101325.480426015
101325.4428110801
101325.4051744256
101325.367615408
101325.3301729996
101325.2930611953
101325.2564625631
101325.2207445856
101325.1862453172
101325.1534858611
101325.1229479586
101325.0952820618
101325.0710764855
101325.0510600111
101325.0358660719
101325.0262298698
101325.0227477196
101325.0260634176
101325.036607208
101325.0547061606
101325.0801364019
101325.1118898834
101325.1476618265
101325.1849484466
101325.2224158625
101325.2598973938
101325.2972911505
101325.3345613641
101325.3714746917
101325.4078582387
101325.4433319927
101325.4775735935
101325.5100652123
101325.5403544773
101325.5678175636
101325.5919142057
101325.6119672305
101325.627410068
101325.6375792833
101325.6419503235
101325.6399448541
101325.6311675621
101325.6152659722
101325.5922734498
101325.5627488003
101325.5283984539
101325.4916681887
101325.4544270078
101325.4171460816
101325.3799125195
101325.3427767015
101325.3058903049
101325.2694498158
101325.2337487613
101325.1991391674
101325.1660634188
101325.1350210611
101325.1065852487
101325.0813727678
101325.0600457584
101325.043284334
101325.0317749
101325.0261847483
101325.0271352799
101325.035163818
101325.0506360072
101325.0735672999
101325.1032292649
101325.1377226985
101325.1743959874
101325.2115033115
101325.2486166271
101325.2856937297
101325.3226519205
101325.3593519715
101325.3955769906
101325.4310438335
101325.4653906572
101325.4981941212
101325.528963469
101325.5571616679
101325.5822061222
101325.6034923968
101325.6204009949
101325.6323206015
101325.6386595652
101325.6388684227
101325.6324637667
101325.6190760566
101325.5985666743
101325.5712885096
101325.5385361429
101325.5026428429
101325.4658082308
101325.428885776
101325.3919861222
101325.3551610433
101325.3185256728
101325.28226018
101325.2466224436
101325.2119400804
101325.1786224574
101325.1471410348
101325.1180427148
101325.0919176834
101325.0694146888
101325.0511967035
101325.0379569041
101325.0303611408
101325.0290640186
101325.0346299218
101325.0475135122
101325.0678623685
101325.0952555328
101325.1281725582
101325.1640796462
101325.200782806
101325.2375523393
101325.2742840031
101325.310947898
101325.347386399
101325.3834527095
101325.4188450245
101325.4532760702
101325.486302773
101325.5175083125
101325.5463306599
101325.5722553549
101325.594643218
101325.6129322465
101325.6264620064
101325.6346831009
101325.6369796205
101325.6328902675
101325.6219454004
101325.6039577943
101325.5790249174
101325.548137907
101325.5132926374
101325.4769610244
101325.4403768329
101325.4038277164
101325.3673081603
101325.3309523775
101325.2948782992
101325.2593521516
101325.2246373624
101325.1911486286
101325.1592939804
101325.1296269593
101325.1026802644
101325.07911607
101325.0595510042
101325.0447040103
101325.0352124732
101325.0317761163
101325.0349575654
101325.0452983409
101325.0630350848
101325.0880203324
101325.119098584
101325.1540196826
101325.1902569847
101325.2266839743
101325.2630745654
101325.2994295942
101325.3356026278
101325.371478519
101325.4067749523
101325.4412368383
101325.474442636
101325.5060054246
101325.53538299
101325.5620846435
101325.5854850879
101325.6050351295
101325.6200774148
101325.6300606356
101325.6343582209
101325.6324871259
101325.6239398354
101325.6084503856
101325.5859547429
101325.5571261098
101325.5235987439
101325.4878789002
101325.4516565504
101325.4154430256
101325.3792436346
101325.3431654787
101325.3073124997
101325.2719142023
101325.2372183811
101325.2035995972
101325.1714502859
101325.1412839926
101325.1136215891
101325.0890900225
101325.0683030553
101325.0519552668
101325.0406964956
101325.0352196013
101325.0361235442
101325.0439790058
101325.0591303781
101325.0816098641
101325.1106337006
101325.1442962915
101325.1799656136
101325.2160272161
101325.2520783812
101325.2881046483
101325.3240002474
101325.3596522165
101325.394825447
101325.4292691722
101325.4626094865
101325.4944625988
101325.5243312033
101325.5517235322
101325.5760525857
101325.5967598825
101325.6132165779
101325.6248509836
101325.6310510782
101325.6312968383
101325.6250725132
101325.6120329411
101325.5920075761
101325.5653859213
101325.5334393679
101325.4985113365
101325.4626937511
101325.4268167531
101325.3909461328
101325.3551639689
101325.3195541889
101325.284319932
101325.2496827535
101325.2159889549
101325.183604042
101325.1530138642
101325.1247151732
101325.0993121052
101325.0774017323
101325.0596645949
101325.0467459704
101325.0393400656
101325.0380618033
101325.0435113782
101325.0561042679
101325.076023503
101325.1027962842
101325.1349251582
101325.1698620948
101325.2055455435
101325.2412647067
101325.2769751842
101325.3125796833
101325.3480037596
101325.3830174231
101325.4174150077
101325.4508292846
101325.4829208887
101325.5131978105
101325.5412083733
101325.5663660146
101325.5881440316
101325.6059050775
101325.6190979645
101325.627091009
101325.6293697911
101325.6253797048
101325.6147470228
101325.5971894848
101325.5729018174
101325.5427739243
101325.508875437
101325.4735195185
101325.4379792746
101325.4024283113
101325.3669445698
101325.331589845
101325.2965417587
101325.2619988064
101325.2282766962
101325.1957166499
101325.1647739013
101325.1359229744
101325.1097408317
101325.0868083719
101325.0677878047
101325.0533195448
101325.0440927518
101325.0407348415
101325.0438673552
101325.0539636933
101325.0713208905
101325.0957179636
101325.126055905
101325.160038431
101325.1952812837
101325.2306625344
101325.2660404927
101325.301348809
101325.3365121304
101325.37134883
101325.4056533077
101325.4391085751
101325.4713753698
101325.502009831
101325.5305572743
101325.5564737369
101325.5792236818
101325.598204445
101325.6128470507
101325.6225427546
101325.6267472219
101325.6249122543
101325.6166065964
101325.6014947013
101325.5795850417
101325.5514741895
101325.5188487404
101325.4840885449
101325.4488987274
101325.413693154
101325.3785392604
101325.3434773142
101325.3086504791
101325.2742160573
101325.2404552319
101325.2076787745
101325.1763345841
101325.1469013955
101325.1199817075
101325.0961922896
101325.0762213187
101325.0607006739
101325.0503832278
101325.0456545628
101325.0470871968
101325.0550571598
101325.0697687335
101325.0907654319
101325.1181074866
101325.1483727939
101325.1790905843
101325.2093403327
101325.2387178573
101325.2670131698
101325.2940824216
101325.3201838818
101325.344955338
101325.3681904478
101325.3898670585
101325.409761583
101325.4271685452
101325.4416650173
101325.452898634
101325.4603523742
101325.4636292972
101325.462413634
101325.4564547137
101325.4453688735
101325.4289773314
101325.408395522
101325.3806135911
101325.3501253964
101325.3164175453
101325.282380253
101325.2486130353
101325.2158564459
101325.1846494722
101325.1551364632
101325.1273828924
101325.1016214504
101325.0774713515
101325.0552706343
101325.0363547579
101325.0202168993
101325.0071950766
101324.9979916624
101324.9928169011
101324.9919874442
101324.9956569311
101325.0041675326
101325.0173203243
101325.0353237523
101325.0575810205
101325.0858912119
101325.1173389479
101325.1506871821
101325.1842045946
101325.2171909786
101325.248971198
101325.2790827045
101325.3073942444
101325.3336778843
101325.3586480637
101325.3819980815
101325.4035024205
101325.4232298379
101325.4401723892
101325.4546519817
101325.4661663846
101325.4741203416
101325.4780680933
101325.4775247116
101325.4722246644
101325.4617375658
101325.4456275493
101325.4245134567
101325.4000613943
101325.3694919168
101325.3367344837
101325.3022735821
101325.2679261966
101325.2340765238
101325.2013959124
101325.1702926742
101325.1409013922
101325.1132396893
101325.0882903151
101325.0652075436
101325.0445275963
101325.0266527512
101325.012021575
101325.0008225487
101324.9936830367
101324.9908929777
101324.9926742736
101324.999184194
101325.0104437333
101325.0259599249
101325.0458090089
101325.0712731117
101325.1016215873
101325.1323561535
101325.1645139138
101325.1965631703
101325.2277507836
101325.257565053
101325.2857606019
101325.3119600154
101325.3361229074
101325.3588565896
101325.3802829482
101325.3993407679
101325.4157835106
101325.4299212078
101325.4413076927
101325.4494210268
101325.453831266
101325.4541141899
101325.4498242653
101325.4401950781
101325.4227744865
101325.3994826535
101325.3706251223
)
;

boundaryField
{
    inlet
    {
        type            calculated;
        value           uniform 101325;
    }
    outlet
    {
        type            calculated;
        value           uniform 101325.3641591865;
    }
    frontAndBack
    {
        type            empty;
    }
}


// ************************************************************************* //
