/*--------------------------------*- C++ -*----------------------------------*\
| =========                 |                                                 |
| \\      /  F ield         | OpenFOAM: The Open Source CFD Toolbox           |
|  \\    /   O peration     | Version:  v2012                                 |
|   \\  /    A nd           | Website:  www.openfoam.com                      |
|    \\/     M anipulation  |                                                 |
\*---------------------------------------------------------------------------*/
FoamFile
{
    version     2.0;
    format      ascii;
    class       volScalarField;
    location    "0.008";
    object      rho;
}
// * * * * * * * * * * * * * * * * * * * * * * * * * * * * * * * * * * * * * //

dimensions      [1 -3 0 0 0 0 0];


internalField   nonuniform List<scalar> 
1000
(
1.176298164338692
1.17632190006367
1.176268400086041
1.176225041458197
1.176174515278535
1.176128571294706
1.176089745554179
1.176057138079096
1.176029293108732
1.176010356114728
1.176004938752153
1.176004638779424
1.176007243270471
1.176015590271925
1.176032087466931
1.176057130494758
1.176089760085803
1.176128515993833
1.176172174223182
1.176219870529039
1.176270889448921
1.176324465970428
1.176379711482049
1.176435615531265
1.176491077944851
1.176544986441631
1.176596372786505
1.176644643483551
1.176689746627726
1.17673183357819
1.176769643893852
1.176797753429626
1.176809767263016
1.176811127389546
1.176810615115701
1.176808424722776
1.176802313302115
1.176790274467512
1.176770596134616
1.17674249217782
1.176706299193079
1.176663289777601
1.17661515323888
1.176563472365254
1.176509478335933
1.176454110714612
1.17639820216856
1.176342608047841
1.176288203596088
1.176235729122663
1.176185549563878
1.176137643645572
1.176092438141658
1.176053028832158
1.176026812668937
1.176017883414485
1.176017278055074
1.176017625582647
1.176019776081763
1.176025100758194
1.176035459123876
1.176052444650603
1.176077189274072
1.1761100516703
1.176150517035855
1.176197318593588
1.176248759402711
1.176303105440291
1.17635887593331
1.176414931135253
1.176470419988264
1.176524744933731
1.176577606587632
1.176628993069286
1.176678857638179
1.176726139894402
1.176766788319454
1.176792955524374
1.17680155514595
1.176802181448462
1.176801716529268
1.176800014426199
1.176795487370684
1.176786685585456
1.176772071829548
1.176750392148789
1.176720895984631
1.176683533848127
1.176639007711444
1.176588651881004
1.17653418616419
1.176477412291119
1.176419921855894
1.176362885895143
1.176306980426667
1.176252441785402
1.17619922712095
1.176147434438551
1.176098487510886
1.176057365736645
1.176032479835817
1.176025234557137
1.176024866917239
1.176025169292667
1.17602689288436
1.176031082376622
1.176039197997484
1.176052612420297
1.17607253174955
1.176099782674866
1.176134649681139
1.176176766283025
1.17622512128144
1.176278211521676
1.176334303856553
1.176391721437201
1.176449092367316
1.176505534350994
1.176560720815797
1.176614713066844
1.176667406947678
1.176717344477709
1.176759721287351
1.176786283448202
1.176794782421188
1.176795431635691
1.176795079054676
1.176793770140947
1.176790232359114
1.176783274596938
1.176771569861671
1.17675390262696
1.176729311116052
1.176697259521174
1.176657763193613
1.176611440343148
1.176559471660481
1.176503447642964
1.176445101914265
1.176385994132624
1.176327258943359
1.176269515379743
1.176212998165165
1.176158077301243
1.176106577375333
1.1760639582281
1.176038666914014
1.176031385494281
1.176030974122063
1.176031201343102
1.176032562236742
1.176035941888253
1.176042563542246
1.176053624088439
1.176070258473544
1.17609339044022
1.176123599657354
1.176160995248985
1.176205142906326
1.176255085792143
1.176309463626123
1.176366706512256
1.17642528269821
1.176483962751294
1.176541995228136
1.176599032821371
1.176654637396258
1.176707111257406
1.176751518892252
1.176779583851481
1.176788920338182
1.1767897511923
1.176789497502549
1.176788516513494
1.176785725467129
1.176780104917421
1.176770481901674
1.176755728302347
1.176734853377307
1.176707134992146
1.176672234695345
1.176630285464669
1.176581933008488
1.17652829529147
1.176470809891448
1.176410992798327
1.176350189156049
1.176289408005677
1.17622934977476
1.176170858114121
1.176116220523509
1.176071287032545
1.17604461834439
1.176036717967217
1.176036176655732
1.176036346976968
1.176037431466975
1.176040185655648
1.176045672753483
1.176054957291697
1.176069093905754
1.176089011985001
1.176115412175527
1.176148655832868
1.176188680512801
1.176234971726051
1.17628659973776
1.176342320163989
1.176400746975612
1.17646058372267
1.176520820050193
1.176580730115882
1.17663947870852
1.176695049358661
1.176742331205425
1.17677287171855
1.176783676307557
1.176784828111105
1.176784648789587
1.176783908564086
1.176781681564359
1.176777083835541
1.176769069096518
1.176756595192324
1.176738688636216
1.176714549299781
1.176683646519226
1.176645806149354
1.17660127678142
1.17655074312802
1.176495253226301
1.176436066356205
1.176374469629065
1.176311624163826
1.176248547103077
1.176186491530349
1.176128180395103
1.176079887230989
1.176050664535731
1.176041539826518
1.176040783043912
1.176040893774046
1.176041743392524
1.176043989417374
1.176048579090163
1.176056463730019
1.176068613663717
1.176085928179948
1.17610915592146
1.176138801378864
1.176175044057559
1.176217692318348
1.176266178344003
1.176319600150994
1.176376830366871
1.176436689721576
1.176498112017117
1.17656016314415
1.176621729808896
1.176680566655764
1.176731447271737
1.17676557390779
1.176778701434816
1.176780405342463
1.17678029211904
1.176779756347954
1.17677798847525
1.176774212228074
1.17676748310369
1.176756844236998
1.176741364761449
1.176720221623524
1.176692777593814
1.1766586606099
1.17661783503568
1.176570638254867
1.176517755849293
1.176460137141487
1.176398876972183
1.176335100090599
1.176269943089249
1.176204892074905
1.176142929587367
1.176090570901165
1.176057490935086
1.176046146697261
1.176044949094844
1.17604501493929
1.176045670086124
1.176047492007888
1.176051332552926
1.176058056865564
1.17606856505913
1.176083717736996
1.176104272651607
1.176130809225143
1.176163660192603
1.176202862932547
1.176248133260677
1.176298871536182
1.176354225295333
1.176413210083127
1.176474830312859
1.176538094223872
1.176601766582472
1.176663545176449
1.176718300841785
1.176757001100476
1.176773602079956
1.176776311698328
1.176776269116605
1.176775910916854
1.176774528232593
1.176771442283583
1.176765785511108
1.176756673884307
1.176743224712521
1.176724620570676
1.176700170845872
1.176669379815319
1.176632013414538
1.176588143810669
1.176538152590342
1.176482693160619
1.176422624679197
1.17635893736099
1.176292748263175
1.176225598343275
1.1761604759277
1.176103784352931
1.176065680496551
1.176050886119183
1.176048857254558
1.176048869099345
1.176049348609005
1.176050796423429
1.176053988413013
1.176059720540421
1.176068832219691
1.176082143642627
1.176100404853797
1.176124234083918
1.176154061353891
1.176190082835533
1.176232226020067
1.17628013703473
1.176333213243317
1.176390681477609
1.176451676885173
1.176515248204707
1.176580165719057
1.176644234336876
1.176702675671915
1.176746576037302
1.17676792876276
1.176772379451423
1.176772487446783
1.176772266120379
1.176771212922715
1.176768719884801
1.176763984532056
1.176756182066111
1.176744473682274
1.176728058560879
1.176706222278851
1.176678393957847
1.176644204430759
1.176603530478574
1.17655651359795
1.176503553476326
1.176445278813329
1.176382505176268
1.176316245039678
1.176247962713878
1.176180447807142
1.176119648312419
1.176075780124855
1.176056170577984
1.176052633201996
1.176052568564799
1.176052883457856
1.17605399794317
1.176056612219515
1.17606146858883
1.176069358904829
1.176081066214982
1.176097324641345
1.176118769973562
1.176145893764272
1.176179001610929
1.176218175814975
1.176263254602833
1.176313845878211
1.17636937260405
1.17642911838366
1.176492226824725
1.176557557940556
1.176623133435452
1.176684712681277
1.176733919460266
1.176761145138076
1.176768408576245
1.176768861430635
1.176768734437452
1.176767963866681
1.176765990988325
1.176762064392819
1.176755409520708
1.176745224843693
1.176730729594271
1.17671120143651
1.176686024387833
1.176654739273936
1.176617083503107
1.176573015130763
1.176522725849424
1.176466639629467
1.176405394218003
1.176339856897228
1.176271336471279
1.17620230452283
1.176138021398788
1.176088218986296
1.176062496518557
1.176056422399736
1.176056129407605
1.176056333344032
1.176057149238733
1.176059252731457
1.176063327982153
1.176070129895788
1.176080410398026
1.176094887380754
1.176114204343542
1.176138892313542
1.176169331831309
1.176205717110092
1.176248033493401
1.176296058837561
1.176349384076363
1.176407436034011
1.176469476548527
1.176534498549532
1.176600789683604
1.176664737796102
1.176718865813154
1.176752722503217
1.176764133026454
1.176765332190674
1.176765273476804
1.176764746725822
1.17676323107381
1.176760021162059
1.176754382747011
1.176745548216986
1.17673275770052
1.176715290711638
1.176692506200527
1.17666388440339
1.176629061695468
1.176587858266544
1.176540302652619
1.176486645293992
1.176427355294514
1.176363142840097
1.176295133408503
1.17622543919094
1.176158527803447
1.17610318322739
1.176070428228078
1.176060470009259
1.176059605183899
1.176059732665894
1.176060300163107
1.176061951449394
1.176065324098632
1.176071141852154
1.176080131628167
1.176092998392881
1.176110388784741
1.176132859890856
1.176160845310012
1.17619462036704
1.176234279304695
1.176279732465296
1.176330713128752
1.176386781050901
1.176447316086668
1.17651144894527
1.176577736402575
1.176643199174433
1.176701464327049
1.176742148174761
1.176759152484821
1.176761868419736
1.176761907771028
1.176761553137562
1.176760421406161
1.176757831443815
1.176753094799139
1.1767454705058
1.176734217790704
1.176718620767585
1.176698022231915
1.176671857971466
1.176639690368569
1.176601239661101
1.176556410192577
1.176505307443372
1.176448249369845
1.176385800023633
1.176318903643318
1.176249310293403
1.176180684851567
1.176120596690746
1.176080466476139
1.176065137538508
1.176063064074374
1.176063092632633
1.176063469449672
1.176064715088139
1.176067454873089
1.176072381271577
1.176080199957667
1.176091602813387
1.176107236964943
1.176127675425919
1.176153387000509
1.176184707859098
1.176221819955233
1.176264738736679
1.176313308723439
1.17636720470653
1.176425927849917
1.176488748382993
1.17655445921236
1.176620645156406
1.176682078107149
1.176729178075627
1.176752935862792
1.176758299359776
1.176758523662078
1.176758335589354
1.176757528597173
1.176755496056672
1.176751574571404
1.176745048924682
1.176735193480134
1.176721297880034
1.176702697722014
1.176678803370483
1.176649126190872
1.17661330865766
1.176571157049074
1.176522663323028
1.176468016148143
1.17640763500416
1.176342288180818
1.17627341638729
1.176203978984187
1.17614023828422
1.176093021942152
1.176070902145822
1.1760665381771
1.176066434073852
1.176066632018544
1.176067557152768
1.176069742503318
1.176073867738767
1.176080617086889
1.176090672211649
1.176104680320063
1.176123229297862
1.176146818004994
1.176175828367793
1.176210506941068
1.176250953213622
1.176297106846619
1.176348738414858
1.176405448095548
1.17646663179924
1.176531297405028
1.176597506475157
1.176661071258052
1.176713693387525
1.176744903172656
1.176754429297021
1.176755263505585
1.176755140630428
1.176754602461278
1.176753032160945
1.176749821950553
1.176744275981311
1.176735687851543
1.176723355463197
1.176706608782593
1.176684835463688
1.17665750829237
1.176624213579186
1.176584678572736
1.176538795829464
1.176486646673523
1.176428535915121
1.176365074499193
1.176297415536622
1.176227909533432
1.176161613196484
1.176108155868481
1.176078363291928
1.176070273918062
1.176069719485439
1.176069838151541
1.176070468728218
1.176072164947709
1.176075564030737
1.176081335614414
1.176090152720722
1.176102662176723
1.176119459376885
1.176141063046511
1.176167891983237
1.176200245649471
1.176238287862075
1.176282033714572
1.17633134230194
1.176385910741383
1.176445241883761
1.176508514557054
1.176574187338805
1.17663897989702
1.176696010951864
1.176734631840529
1.176749797973122
1.176751957712689
1.176751935886249
1.176751594870059
1.176750433846962
1.176747862718346
1.176743210878859
1.176735785311224
1.176724891105685
1.176709857652231
1.176690059963339
1.176664942034584
1.176634046219716
1.176597041649988
1.17655374443699
1.176504139089705
1.17644841919616
1.17638706193991
1.176320994977173
1.176252070932798
1.176184279759461
1.176125756462282
1.176088049504009
1.176074608385582
1.176072997908925
1.17607301891045
1.176073454421998
1.176074730887064
1.176077491308174
1.176082376252283
1.176090049690014
1.176101158087496
1.176116306911456
1.176136034226011
1.176160789237741
1.176190915286449
1.176226631998496
1.176268017615065
1.17631500090985
1.176367359653036
1.176424695268238
1.176486331552024
1.176551029629976
1.176616233274373
1.176676440442202
1.176721834745937
1.176743915623381
1.176748579394163
1.176748731167688
1.176748555630045
1.176747715317749
1.176745693346367
1.176741834800018
1.176735466880149
1.176725902846586
1.176712470447527
1.176694532997946
1.176671513111118
1.176642917822465
1.176608363747005
1.176567601605696
1.17652054243281
1.176467290556762
1.17640819816916
1.176343994422122
1.17627614207908
1.176207761578871
1.176145457830936
1.17610027146045
1.176080005473823
1.176076296532234
1.176076220771892
1.176076462707483
1.176077392897553
1.176079585184735
1.176083668309936
1.176090296508374
1.176100114311526
1.176113731797494
1.176131700006787
1.176154492233509
1.176182487476864
1.176215950373203
1.176255013126559
1.176299669196328
1.176349770372673
1.176405001266003
1.176464804286885
1.176528186362448
1.176593171266739
1.176655459799162
1.176706577686577
1.176736227298836
1.176744891218335
1.176745582398824
1.176745508048893
1.176744933204156
1.176743393107432
1.176740242580124
1.176734830775442
1.17672647971062
1.176714520181646
1.17669831126891
1.17667726179423
1.176650852368583
1.176618659127324
1.176580378847358
1.176535854857449
1.17648510676244
1.176428377069491
1.17636623225453
1.176299824114491
1.176231578605294
1.176166734069241
1.176115094908061
1.1760871072732
1.176079886861034
1.176079445055387
1.176079567722183
1.176080206241872
1.176081894410128
1.17608524576106
1.176090902535319
1.176099507807818
1.176111677009186
1.176127975676967
1.176148899368468
1.176174854981096
1.17620614358064
1.176242946391094
1.176285314535439
1.176333159035313
1.176386232909252
1.176444085201074
1.176505922899432
1.176570203352776
1.176633594107532
1.176689128922701
1.17672625854993
1.176740472291657
1.17674240460772
1.176742387607449
1.176742034763743
1.176740895137185
1.176738375614355
1.176733836020906
1.176726611530442
1.176716036207196
1.176701462825624
1.176682286392297
1.176657967064341
1.176628048759855
1.176592180052834
1.176550145154364
1.1765018981634
1.176447595835588
1.176387665526494
1.17632300513436
1.176255503841472
1.176189246744711
1.17613243551309
1.176096403985629
1.176083944486231
1.176082535807882
1.176082613818121
1.176083011970326
1.176084296525314
1.17608701794869
1.176091814899385
1.176099321103542
1.176110153153879
1.176124885127033
1.176144031284295
1.176168026884689
1.176197207967775
1.176231797465468
1.17627189817673
1.176317481282236
1.176368363786625
1.1764241747352
1.176484269629508
1.176547444099572
1.176611141204675
1.176669826685738
1.176713767913864
1.176734844570188
1.176739208604883
1.176739364064983
1.17673914321148
1.176738333579683
1.176736340775983
1.176732566006936
1.176726353363301
1.176717044192984
1.176703992104066
1.1766865835884
1.176664258186002
1.176636529916269
1.176603010322634
1.176563433463542
1.17651768389854
1.176465832570472
1.17640819796654
1.176345486165024
1.17627915855321
1.176212362405016
1.176151739461126
1.176108225342272
1.176089121658278
1.176085759282583
1.176085705665888
1.176085945508128
1.176086870584965
1.176089028236504
1.176093030488961
1.17609950767887
1.176109078231932
1.176122326560403
1.176139782417951
1.176161902580555
1.176189054376659
1.17622150084703
1.176259387866357
1.176302733020629
1.176351412819223
1.176405136986127
1.176463378986773
1.176525174381648
1.17658855646294
1.176649234655145
1.176698838983038
1.176727397603921
1.17673564938027
1.176736331147049
1.176736342460144
1.176735833956281
1.176734280681331
1.176731042269067
1.176725477244467
1.176716984846673
1.176705036486715
1.176689180758211
1.17666901654939
1.176644146621821
1.176614140040403
1.1765785243785
1.176536814761248
1.176488574720104
1.176433548632594
1.176371929295609
1.176304417562862
1.176233227526307
1.176162740171288
1.176104557143595
1.176072211470629
1.176053607928471
1.176039852662737
1.17602993772959
1.176022030823629
1.176015715485983
1.176011911446219
1.176011495039766
1.176014590698061
1.176021210623108
1.176032039444517
1.176047731274116
1.176068911573493
1.176096163628659
1.176130104711297
1.176171340033182
1.176220385400681
1.176277604351909
1.176343169904005
1.176416086475269
1.176493568107539
1.176572034693345
1.176641655803107
1.176689722306525
1.176723174942211
1.176748636632751
1.176766467099141
1.176779826914512
1.176790519953335
1.17679929926065
1.176806509702727
1.176810820412606
1.176811536638388
1.176809043295002
1.176802204219041
1.176789319730312
1.176768720601388
1.176739008217843
1.176699268239995
1.176648936615725
1.176587693259701
1.176515359931012
1.176433616573688
1.176346700950762
1.176260336234301
1.176186477862455
1.176134300755806
1.176093961436156
1.176064463485262
1.17604426528889
1.176030143523048
1.176020489445661
1.176014351665659
1.17601152691888
1.176012521855151
1.176017513881078
1.176026729232233
1.176040537789791
1.176059273193148
1.176083413858729
1.176113711029502
1.176151053162301
1.176196211656393
1.176249604471244
1.176311198853055
1.176380541358178
1.176455209356646
1.176530688770311
1.176601994902896
1.176659797893169
1.176699462908139
1.176730865284536
1.176753948737219
1.176770210403639
1.17678176422333
1.176790022576756
1.176796117905872
1.176799416685073
1.176799541691663
1.176797028412899
1.176791193580437
1.176780949763446
1.176764717120638
1.176740639955223
1.176706976384512
1.176662356583395
1.176605896460695
1.176537643176271
1.176459191870285
1.176374671811861
1.176288277234377
1.176208953492397
1.17614761906046
1.176102549654747
1.176066607479747
1.176041277866766
1.176024125184511
1.176013188563954
1.176007029093162
1.176004552943071
1.176005768817282
1.176010478763205
1.176018600859161
1.17603094632667
1.176048181334209
1.176071133700094
1.176100630236777
1.176137126881047
1.176180356402109
1.176229462496836
1.176283361367501
1.176343262297976
1.176405001398129
1.176505808486841
)
;

boundaryField
{
    inlet
    {
        type            calculated;
        value           uniform 1.176395973595895;
    }
    outlet
    {
        type            calculated;
        value           uniform 1.176527452924158;
    }
    frontAndBack
    {
        type            empty;
    }
}


// ************************************************************************* //
