/*--------------------------------*- C++ -*----------------------------------*\
| =========                 |                                                 |
| \\      /  F ield         | OpenFOAM: The Open Source CFD Toolbox           |
|  \\    /   O peration     | Version:  v2012                                 |
|   \\  /    A nd           | Website:  www.openfoam.com                      |
|    \\/     M anipulation  |                                                 |
\*---------------------------------------------------------------------------*/
FoamFile
{
    version     2.0;
    format      ascii;
    class       volScalarField;
    location    "0.008";
    object      T;
}
// * * * * * * * * * * * * * * * * * * * * * * * * * * * * * * * * * * * * * //

dimensions      [0 0 0 1 0 0 0];


internalField   nonuniform List<scalar> 
1000
(
299.9873388791063
299.9890987148332
299.9827794446864
299.9781406856959
299.9737313134858
299.9699248149421
299.9664634141488
299.9633482239894
299.9606413028854
299.958869765156
299.9584589739389
299.9585951898602
299.9590258952667
299.9599199484057
299.9615783541988
299.9640894452361
299.9673659597104
299.9712612998425
299.97565399775
299.9804611210762
299.9856155917799
299.9910440524381
299.9966580923411
300.0023543128538
300.0080181985548
300.013532866922
300.018795767623
300.023742717234
300.0283652241433
300.0326763268878
300.0365460123609
300.0394204414721
300.040647411194
300.0407846213634
300.0407273177021
300.0404954204709
300.0398645091053
300.0386308914768
300.0366193935226
300.0337497431215
300.0300562482565
300.0256684303076
300.0207581696136
300.0154864651633
300.0099784975075
300.0043298001441
299.9986251466871
299.9929517842768
299.9873991263314
299.982042905999
299.9769205796781
299.9720301687657
299.967415389643
299.9633923505988
299.9607161466243
299.959804660971
299.9597429565163
299.9597786595727
299.9599984660148
299.9605421971412
299.9615996591588
299.9633335157295
299.9658592976296
299.9692135969019
299.9733438468083
299.9781207251742
299.9833710053152
299.9889176821347
299.9946096071557
300.0003304465721
300.0059933382033
300.0115372986192
300.0169317800018
300.0221755776611
300.027263931343
300.032088648602
300.036236341602
300.038906341613
300.0397838014291
300.0398477034855
300.0398002639972
300.0396265904266
300.0391646737532
300.0382665796895
300.0367754456005
300.0345633065712
300.0315535515759
300.0277410946405
300.0231975222425
300.018058946587
300.0125008278543
300.0067070025242
300.0008398812616
299.9950189718414
299.989313273464
299.983746917087
299.9783155403554
299.973029156686
299.9680331028788
299.9638356667982
299.9612954318902
299.9605558622372
299.9605183367778
299.9605492048503
299.9607251446177
299.961152792003
299.9619811990488
299.9633504755756
299.9653837215483
299.9681652985917
299.9717242129905
299.9760230169715
299.9809584545398
299.9863770628112
299.9921019181751
299.997961860756
300.0038168716035
300.0095769121387
300.0152086643878
300.0207183946713
300.026095483746
300.0311911682163
300.0355152403961
300.0382255533477
300.0390927519994
300.039158996618
300.039123022843
300.0389894691547
300.0386284898819
300.0379185473267
300.036724235351
300.0349215152361
300.0324122314693
300.0291416831542
300.0251113995405
300.0203844203597
300.0150811837486
300.0093639561033
300.0034096256332
299.9973773457427
299.9913829116928
299.9854895073722
299.9797210986335
299.9741154608672
299.9688588441126
299.9645085811146
299.961926971094
299.9611837143289
299.9611417248127
299.9611649214089
299.9613038382027
299.9616488197361
299.9623247283287
299.9634537324436
299.9651516722995
299.9675128219503
299.9705963251799
299.9744132868059
299.9789193365807
299.9840167695666
299.9895667090841
299.9954088970805
300.0013869851068
300.0073754951125
300.0132977421887
300.0191182905747
300.0247924395208
300.0301469658817
300.034678282368
300.0375419471143
300.0384946056154
300.0385793848339
300.0385535022344
300.038453409294
300.0381686240337
300.0375951254424
300.036613225355
300.0351078068122
300.032977763614
300.0301493889128
300.0265881167776
300.0223074777988
300.0173733185205
300.0118996788162
300.0060332234354
299.9999286337578
299.9937231722923
299.9875198146514
299.9813900500794
299.9754199942539
299.9698431467972
299.9652566716825
299.9625344756941
299.9617280415276
299.9616727891421
299.961690178231
299.9618008817794
299.9620820191157
299.9626421174825
299.9635898359561
299.9650328192974
299.9670659219013
299.9697606415644
299.9731538349392
299.9772390930294
299.9819638622201
299.9872332065008
299.9929200819894
299.9988830002538
300.0049896299271
300.0111368511185
300.0172505898234
300.0232456199952
300.0289161876539
300.0337408126551
300.0368570886242
300.0379595501735
300.0380770783376
300.0380587842286
300.0379832584157
300.0377560263906
300.0372868923869
300.0364690954273
300.0351962917877
300.0333691392876
300.0309059775885
300.0277526333876
300.023891303669
300.019347315247
300.0141904956994
300.0085277515682
300.0024875553503
299.9962012327372
299.9897872656448
299.9833494555943
299.9770156983588
299.971063934235
299.9661345540631
299.9631516693902
299.9622202631543
299.9621430167862
299.9621543233753
299.9622410523497
299.9624703183885
299.9629388114828
299.9637436352049
299.9649838300621
299.9667511807711
299.9691220884787
299.9721480250881
299.9758472826906
299.9802002641891
299.9851489736981
299.9906013102133
299.9964421758365
300.0025511869507
300.0088195122336
300.0151518125007
300.0214344750062
300.0274383823586
300.0326302579903
300.0361124686312
300.0374519575489
300.0376258201986
300.0376142700691
300.0375596058239
300.0373792211283
300.0369939076023
300.0363072900113
300.0352217286276
300.0336422324829
300.0314848056926
300.0286844059156
300.0252030398107
300.0210370353853
300.0162207791464
300.0108241881096
300.0049440969904
299.9986921989406
299.9921832509007
299.9855332318784
299.9788938086688
299.972569407128
299.9672250851361
299.9638484865728
299.9626905235567
299.9625682799585
299.9625750040557
299.962641881772
299.9628278567671
299.9632198816416
299.9639062643034
299.9649788793897
299.9665255648681
299.9686236548881
299.9713322739591
299.9746853591298
299.9786866931491
299.9833072321323
299.9884857329607
299.9941351510567
300.0001549774416
300.0064435766693
300.012899714891
300.0193973247265
300.0257014764205
300.0312888061742
300.0352377213769
300.0369316338333
300.0372081151667
300.0372037723673
300.0371672260927
300.0370261439741
300.0367112652347
300.0361340661007
300.0352043395789
300.0338320121592
300.0319336650461
300.0294388125707
300.0262968476791
300.0224838549571
300.0180071605188
300.0129056605401
300.0072459889393
300.0011157800471
299.9946160506228
299.9878607736225
299.9810072009298
299.9743603353646
299.9685737949625
299.9646844095405
299.9631742766448
299.9629671812969
299.9629683924854
299.9630173411303
299.9631651283033
299.9634909509232
299.9640760555529
299.965006121823
299.9663648642386
299.9682288325993
299.9706611160555
299.9737055857771
299.9773822365784
299.9816836330424
299.9865736177697
299.9919906427439
299.9978557581488
300.0040806632757
300.0105682478877
300.0171929969711
300.0237309001182
300.0296943732072
300.0341739297667
300.036352702999
300.0368068371447
300.0368178580535
300.036795276701
300.0366878135375
300.0364334325814
300.0359502512609
300.0351541072177
300.0339594062497
300.0322844260736
300.030056254537
300.0272166196169
300.0237278241059
300.0195772601006
300.0147793259813
300.0093747637952
300.0034276858548
299.9970212784973
299.9902588314565
299.9832897618325
299.9763987754292
299.9701929948594
299.9657152557256
299.9637136216765
299.9633525449062
299.9633459484164
299.9633780926616
299.9634918546178
299.9637587063792
299.9642544173705
299.9650598131914
299.9662548180349
299.9679143583249
299.9701033182053
299.9728718528946
299.9762511300414
299.9802495189033
299.9848504712449
299.9900139278922
299.9956809541544
300.0017783955438
300.0082188164804
300.0148858498898
300.021577597066
300.0278613323314
300.0328823917468
300.0356604381856
300.0364015765177
300.0364477851315
300.0364348283117
300.0363562027157
300.0361548964619
300.0357542374816
300.0350751901551
300.0340359648602
300.0325568870546
300.0305642396489
300.0279951514815
300.0248027447539
300.0209601934529
300.016463179834
300.0113312220681
300.005607538817
299.9993571653848
299.9926685667902
299.9856752792324
299.978629535527
299.972068250943
299.9669848322646
299.9643592373383
299.9637392230827
299.9637093166315
299.9637301341842
299.9638134169538
299.9640281299545
299.964444107859
299.9651384052533
299.9661877705178
299.9676654749082
299.9696371917479
299.9721571083654
299.9752640452234
299.978977797668
299.9832968360496
299.9881984488512
299.9936408444351
299.9995654827097
300.0058969893577
300.0125325545717
300.0192974083818
300.0258229415385
300.0313462158497
300.0348008975845
300.0359651938413
300.0360875531741
300.0360815626848
300.0360278150673
300.0358731622482
300.0355456309545
300.034970299654
300.0340688402626
300.0327637117386
300.0309813877702
300.0286564421039
300.0257358177284
300.0221823826669
300.0179777542057
300.0131248034159
300.0076490411026
300.0015982905892
299.9950449800814
299.9881039282334
299.9809906753708
299.974161205416
299.9685121427675
299.9651687300511
299.9641522490492
299.9640639725153
299.964076985431
299.9641349125939
299.9643034663359
299.9646477260372
299.9652415656337
299.9661591816285
299.9674725271243
299.9692475976572
299.9715412429844
299.9743977022035
299.9778450528303
299.9818928832453
299.9865320063536
299.9917351596341
299.9974573691095
300.0036353020227
300.010180204354
300.0169447624599
300.0236249347999
300.0295704282271
300.033721774452
300.0354568505717
300.0357339765031
300.0357379919242
300.0357018061486
300.0355863270887
300.0353220532658
300.0348387358787
300.0340607662645
300.0329125531953
300.0313210413608
300.029219158422
300.0265493147919
300.0232668315076
300.0193431298476
300.0147684105465
300.009553393375
300.0037304770094
299.9973571738829
299.9905298007801
299.9834269293949
299.9764225942068
299.9702894157886
299.9661932217122
299.9646285320384
299.9644168840635
299.9644197991012
299.9644582622914
299.9645854094242
299.9648650695643
299.9653679245627
299.9661660030226
299.9673299234918
299.9689257328066
299.9710119084519
299.9736362855762
299.9768331551186
299.9806210608735
299.9850015459631
299.9899587030874
299.9954592992268
300.0014523808549
300.007863429232
300.0145692217824
300.0213232703656
300.0275920820679
300.0323981673945
300.0348223635532
300.0353696395602
300.0353925266288
300.0353733359814
300.0352909921325
300.0350835958782
300.0346834550546
300.0340175888734
300.0330119514756
300.0315940530321
300.0296960887034
300.0272578772789
300.0242295370515
300.0205745574333
300.0162731352855
300.0113244082647
300.0057475825629
299.9995854161033
299.9929162658788
299.9858871237084
299.9788000017961
299.972294084692
299.9674746352543
299.9652167849237
299.9647713352599
299.9647607087946
299.9647809135082
299.9648753451592
299.9650984116238
299.9655194884713
299.9662084156354
299.9672347694894
299.968664606396
299.9705579236671
299.9729656265677
299.9759266790184
299.9794662213989
299.9835943772791
299.9883049519786
299.9935744894893
299.9993621413234
300.0056062133705
300.0122054170594
300.0189619061088
300.0254483321111
300.0308179535247
300.0340025577686
300.0349745790207
300.0350596992175
300.035047161029
300.0349922469987
300.034832016374
300.0345044521561
300.0339385501088
300.0330622277197
300.0318038390986
300.0300950064741
300.0278732335282
300.0250847046522
300.0216871813211
300.0176527991219
300.0129705550345
300.0076487028998
300.0017182990885
299.9952416413806
299.9883363648514
299.981242329078
299.9744756432214
299.9690192217981
299.965978201635
299.9651524853087
299.9650958917682
299.9651080041068
299.9651723689007
299.9653455076294
299.9656924631178
299.9662815862865
299.9671815720559
299.9684584390744
299.9701729526267
299.9723780476868
299.9751164540775
299.9784187150842
299.98230152275
299.9867663837945
299.9917988785322
299.9973680528185
300.0034231257423
300.0098802517615
300.0165820931311
300.0231938851573
300.0290134613871
300.0329543163136
300.0345018355213
300.0347222096717
300.0347199821884
300.0346851850571
300.0345667160135
300.0343043621504
300.0338296952245
300.033071998972
300.0319603619186
300.0304263489066
300.0284061756557
300.0258430912809
300.022690374758
300.018914234343
300.0144958692435
300.0094336560713
300.0037473023932
299.9974854549317
299.990742736486
299.9837081840175
299.9767890094383
299.9708155677286
299.9669667326468
299.9655947462365
299.9654303580897
299.9654325013999
299.9654769550399
299.9656072477296
299.9658890124971
299.9663876331905
299.9671708813586
299.9683047397171
299.9698510029893
299.9718645818879
299.974391312305
299.9774662185708
299.9811116916875
299.9853356860484
299.9901308956368
299.9954745990682
300.0013260756387
300.0076162728278
300.0142187234179
300.0208725443341
300.0270162880901
300.031648341505
300.033901438161
300.0343773181919
300.0343928044693
300.0343748924387
300.0342891479378
300.0340828288546
300.0336891079759
300.033039332517
300.0320634253877
300.0306927851215
300.0288624355583
300.0265134462116
300.023595494848
300.020069433843
300.0159097927145
300.0111074530097
300.005673015498
299.999642371932
299.9930898850254
299.9861647966954
299.979185558455
299.9728263225188
299.9682140892141
299.9661454724973
299.9657668860783
299.9657591525577
299.9657838472326
299.9658787942737
299.9661025674906
299.9665193437336
299.9671959012286
299.968198025966
299.9695879845088
299.971422013672
299.9737484099844
299.9766058398636
299.9800212909404
299.9840082279282
299.9885659491534
299.9936792894948
299.9993160189236
300.0054191894534
300.0118874152538
300.0185189931749
300.0248752007027
300.0300913439146
300.0331167621175
300.0340008102581
300.0340713365128
300.0340637495597
300.0340050927925
300.0338479432205
300.03352646728
300.0329742523889
300.0321221156686
300.0309017676644
300.0292478016139
300.0270998817575
300.0244049919818
300.0211198569073
300.0172135044585
300.0126699100765
300.0074910310884
300.001701567225
299.9953592788954
299.9885816673838
299.9816162927488
299.9749978025979
299.969726978127
299.9668702051605
299.966133190921
299.9660880938509
299.9661006143981
299.9661657896077
299.9663381056336
299.9666801872064
299.9672575885445
299.968135947587
299.9693780782317
299.9710416984279
299.9731773789315
299.9758266358828
299.9790201776215
299.9827764746559
299.9871007130517
299.9919837748976
299.9974004130873
300.0033045623305
300.0096152517473
300.0161750183058
300.0226437778189
300.0283106919098
300.0320993939549
300.0335497399303
300.0337469093379
300.0337451743007
300.0337091701268
300.0335928837794
300.0333357944365
300.0328725787019
300.0321353966444
300.0310562931642
300.0295692193474
300.0276124315118
300.0251308286889
300.022077850682
300.0184176095821
300.0141280511222
300.0092044506002
300.0036627587596
299.9975465388488
299.9909473777874
299.9840580442474
299.9772954610851
299.9714967859709
299.9678189800075
299.9665471971182
299.9664034080537
299.9664113704684
299.9664520105726
299.9665831284065
299.9668609112285
299.9673505478398
299.9681167224146
299.969222368309
299.9707260763017
299.9726803279211
299.9751295361911
299.9781079814792
299.9816383937483
299.985731235783
299.990383531777
299.9955765665835
300.0012724402656
300.0074053373905
300.0138523128321
300.0203524106835
300.0263408942448
300.0308246921104
300.0329753293852
300.0334206272529
300.0334364898107
300.0334139538315
300.0333313395857
300.033127995813
300.032742821688
300.0321088875374
300.0311589821894
300.0298271429125
300.0280507587734
300.0257726270939
300.0229431392781
300.0195226315608
300.0154839348654
300.0108152310476
300.0055237159556
299.9996418436878
299.9932416238424
299.986472159187
299.9796546406896
299.9734669786554
299.9690254504936
299.9670754826579
299.9667322733349
299.9667268002071
299.9667512812009
299.9668457059568
299.9670659428363
299.9674744622944
299.9681356029141
299.9691124858573
299.9704647579477
299.9722464834951
299.9745042735996
299.9772756044034
299.9805873020183
299.9844542281467
299.9888781454763
299.9938464137689
299.9993293680389
300.0052732314227
300.0115795415733
300.0180475673322
300.0242394656016
300.0293011812472
300.0322152884183
300.0330572864842
300.0331268526457
300.0331280067405
300.0330761191826
300.0329176242951
300.0325871792759
300.0320193274552
300.0311527652103
300.0299335511215
300.0283156165765
300.0262580214734
300.0237202166132
300.020658208946
300.0170237647351
300.0127673716802
300.0078444476393
300.0022288557205
299.9959402134041
299.9890499868281
299.9817840934606
299.9745896581175
299.9686508796328
299.965349250573
299.9634503101292
299.9620462439849
299.9610341724716
299.9602270673715
299.9595824207831
299.959194117382
299.9591516130906
299.959467609106
299.9601433477583
299.9612487088217
299.9628504536122
299.9650124134355
299.9677941078181
299.9712585166979
299.9754673778922
299.980473290371
299.9863132970793
299.9930049827353
300.0004466575037
300.0083539301881
300.0163614053072
300.0234659217295
300.0283707339057
300.0317842517843
300.0343823335273
300.0362017126937
300.0375649054989
300.0386559825938
300.0395517866668
300.0402875091279
300.0407273552892
300.0408004383924
300.0405460326019
300.0398482050284
300.0385335227445
300.0364316521911
300.0333998562676
300.0293447926602
300.0242088407537
300.0179592522931
300.0105777338042
300.0022356077185
299.9933652648854
299.9845507587736
299.9770123432933
299.9716866715453
299.9675691819335
299.9645582320542
299.9624965099575
299.961055023445
299.9600695731522
299.9594430516623
299.9591547122671
299.9592562768612
299.9597658524507
299.9607065223624
299.9621160354021
299.9640284401599
299.9664925573341
299.9695850470506
299.9733965638725
299.9780058009319
299.9834553623813
299.989741837665
299.9968188722498
300.0044391445047
300.0121419377257
300.019418570728
300.0253170317474
300.0293645158044
300.032568810804
300.0349242097042
300.0365835063023
300.0377624187774
300.0386050708755
300.0392270168919
300.0395636132608
300.0395763741786
300.0393199372245
300.0387245767016
300.0376793337442
300.0360230012455
300.0335662097115
300.0301311785044
300.0255780643682
300.0198165747997
300.0128514564174
300.0048454547605
299.9962199590879
299.9874029729771
299.9793072074687
299.9730466413356
299.9684448794731
299.9647734093441
299.9621851625715
299.9604342393627
299.9593227522397
299.9587021514056
299.9584548730664
299.9585884479782
299.9590937487415
299.9599611748768
299.9612565846013
299.9629910037996
299.9651455038146
299.9677154553141
299.9707983090269
299.9746552083113
299.9796732767441
299.9861470848138
299.9941597939001
300.0023424164958
300.0113172179109
)
;

boundaryField
{
    inlet
    {
        type            fixedValue;
        value           uniform 300;
    }
    outlet
    {
        type            inletOutlet;
        inletValue      uniform 300;
        value           uniform 300.0117143603462;
    }
    frontAndBack
    {
        type            empty;
    }
}


// ************************************************************************* //
