/*--------------------------------*- C++ -*----------------------------------*\
| =========                 |                                                 |
| \\      /  F ield         | OpenFOAM: The Open Source CFD Toolbox           |
|  \\    /   O peration     | Version:  v2012                                 |
|   \\  /    A nd           | Website:  www.openfoam.com                      |
|    \\/     M anipulation  |                                                 |
\*---------------------------------------------------------------------------*/
FoamFile
{
    version     2.0;
    format      ascii;
    class       volVectorField;
    location    "0.008";
    object      U;
}
// * * * * * * * * * * * * * * * * * * * * * * * * * * * * * * * * * * * * * //

dimensions      [0 1 -1 0 0 0 0];


internalField   nonuniform List<vector> 
1000
(
(-0.002777257431313508 0 0)
(-0.03442900701154351 0 0)
(-0.04261774208795819 0 0)
(-0.05779279259549583 0 0)
(-0.07167720458972528 0 0)
(-0.08459414644555843 0 0)
(-0.09561546150421271 0 0)
(-0.1050398033283993 0 0)
(-0.1131572930277043 0 0)
(-0.1186630141952533 0 0)
(-0.1201511259909462 0 0)
(-0.1200082167403768 0 0)
(-0.1191777290146832 0 0)
(-0.1166567445893406 0 0)
(-0.1118106720881118 0 0)
(-0.1044539358752288 0 0)
(-0.09486421165845169 0 0)
(-0.08346977524407882 0 0)
(-0.07063201349065655 0 0)
(-0.05660275574356751 0 0)
(-0.0415845491785332 0 0)
(-0.025797136484102 0 0)
(-0.009506414052714794 0 0)
(0.006984231088919855 0 0)
(0.02335515508423771 0 0)
(0.03928461804780976 0 0)
(0.05447598371590418 0 0)
(0.06873450776964841 0 0)
(0.08204848967648132 0 0)
(0.09448838393750519 0 0)
(0.1056806599742881 0 0)
(0.1139821954093513 0 0)
(0.1174999978876681 0 0)
(0.1178860575033394 0 0)
(0.1177828971799025 0 0)
(0.1170942966058141 0 0)
(0.115295931801797 0 0)
(0.1117369931668773 0 0)
(0.10592549591344 0 0)
(0.09762917289451849 0 0)
(0.08694883694303475 0 0)
(0.07425639212683915 0 0)
(0.06004765984116719 0 0)
(0.04479352463457618 0 0)
(0.0288612103330863 0 0)
(0.01252235893050552 0 0)
(-0.00398529648561979 0 0)
(-0.02040317656962104 0 0)
(-0.03645918165013798 0 0)
(-0.05194002865313691 0 0)
(-0.06676013019961746 0 0)
(-0.08092411360882275 0 0)
(-0.09427111056029271 0 0)
(-0.1058792803417779 0 0)
(-0.113612044906293 0 0)
(-0.1162825859482683 0 0)
(-0.1164834995121131 0 0)
(-0.1163208369301734 0 0)
(-0.1157220132995999 0 0)
(-0.1141386599739675 0 0)
(-0.1110815798283289 0 0)
(-0.1060669919351986 0 0)
(-0.0987611246060433 0 0)
(-0.08905651024548196 0 0)
(-0.07710823395127134 0 0)
(-0.06329259441958796 0 0)
(-0.04810692506491372 0 0)
(-0.03205943711414644 0 0)
(-0.01559216127139897 0 0)
(0.0009514533826421495 0 0)
(0.01732561347686954 0 0)
(0.03336602574641724 0 0)
(0.0489794453876462 0 0)
(0.06414241699329826 0 0)
(0.07884294635438664 0 0)
(0.09279913236103172 0 0)
(0.1048207325434102 0 0)
(0.1125496725959681 0 0)
(0.115058039884633 0 0)
(0.1152241016570274 0 0)
(0.1151390768106897 0 0)
(0.1146046605013461 0 0)
(0.113278275072752 0 0)
(0.1106793009340114 0 0)
(0.1063657477077347 0 0)
(0.0999669514298084 0 0)
(0.0912630722040618 0 0)
(0.08023686212558864 0 0)
(0.06709305413614743 0 0)
(0.05222850785685661 0 0)
(0.0361546286264046 0 0)
(0.01939925391757401 0 0)
(0.002425319816783364 0 0)
(-0.01441751839932065 0 0)
(-0.0309181951401857 0 0)
(-0.04700959257191387 0 0)
(-0.06272284818996293 0 0)
(-0.07803023792476659 0 0)
(-0.09248345240800265 0 0)
(-0.1046035070010289 0 0)
(-0.1119419346746979 0 0)
(-0.1141055228521873 0 0)
(-0.1142368175405894 0 0)
(-0.1140999117485802 0 0)
(-0.1136179413260594 0 0)
(-0.1123729944428287 0 0)
(-0.1099777579761288 0 0)
(-0.1060174837658357 0 0)
(-0.1001362936829605 0 0)
(-0.09208882649662216 0 0)
(-0.08179350727552007 0 0)
(-0.06936037645301948 0 0)
(-0.05508509220155582 0 0)
(-0.03940869241937558 0 0)
(-0.022846939767481 0 0)
(-0.005900120226033658 0 0)
(0.01103139474858446 0 0)
(0.02769619580752863 0 0)
(0.04399338641656048 0 0)
(0.05992593617179604 0 0)
(0.07546584058922384 0 0)
(0.09020671758689316 0 0)
(0.1027324984368722 0 0)
(0.1105747120247535 0 0)
(0.1130612314549658 0 0)
(0.1132387142125487 0 0)
(0.1131751397384342 0 0)
(0.1127633629646961 0 0)
(0.1117270581901303 0 0)
(0.1096725359350741 0 0)
(0.106217731185168 0 0)
(0.1010032231297881 0 0)
(0.09374649837688796 0 0)
(0.08428746970959315 0 0)
(0.07262885047512949 0 0)
(0.0589553957504477 0 0)
(0.04361821617521825 0 0)
(0.02708345052381812 0 0)
(0.009857903663053728 0 0)
(-0.007594458939056878 0 0)
(-0.02493050723761319 0 0)
(-0.04197075687762973 0 0)
(-0.05865941187630677 0 0)
(-0.0748859379777822 0 0)
(-0.09009068896605155 0 0)
(-0.1026580089023544 0 0)
(-0.1101210366230259 0 0)
(-0.1122905730418683 0 0)
(-0.11242529488282 0 0)
(-0.1123235876446769 0 0)
(-0.1119425668194041 0 0)
(-0.1109383414714008 0 0)
(-0.1089841473410871 0 0)
(-0.1057188075645777 0 0)
(-0.1008073339260519 0 0)
(-0.09397621927823585 0 0)
(-0.08505641916610476 0 0)
(-0.07401682322870633 0 0)
(-0.06098302389221251 0 0)
(-0.04623584406967991 0 0)
(-0.03018086533158121 0 0)
(-0.013285207521947 0 0)
(0.004003782589302175 0 0)
(0.02132972414752293 0 0)
(0.03846512989554159 0 0)
(0.05529581347217159 0 0)
(0.07169788381584143 0 0)
(0.08718971216949011 0 0)
(0.1003115667727688 0 0)
(0.1085932736135278 0 0)
(0.1113301631348617 0 0)
(0.1115666738991548 0 0)
(0.1115262204309474 0 0)
(0.1112131223901968 0 0)
(0.1103969522687208 0 0)
(0.1087369838250968 0 0)
(0.1058966545160392 0 0)
(0.1015421431908103 0 0)
(0.09538215709311051 0 0)
(0.08720189557251574 0 0)
(0.07690008463675707 0 0)
(0.06451797301414201 0 0)
(0.05024809393193729 0 0)
(0.03441739300429766 0 0)
(0.01744637716754175 0 0)
(-0.0002140669255878386 0 0)
(-0.01816058004037879 0 0)
(-0.03609897674844061 0 0)
(-0.05383310960943995 0 0)
(-0.07111118995564421 0 0)
(-0.08724101760183217 0 0)
(-0.1004949104006223 0 0)
(-0.1083675732969515 0 0)
(-0.1107157147383629 0 0)
(-0.1108852157480273 0 0)
(-0.1108064482231972 0 0)
(-0.1105042958421189 0 0)
(-0.1096853642619636 0 0)
(-0.1080661479610423 0 0)
(-0.1053251117635389 0 0)
(-0.1011510703457837 0 0)
(-0.09526907320731968 0 0)
(-0.08747405456775958 0 0)
(-0.07766000600559642 0 0)
(-0.06584305920549345 0 0)
(-0.05217413433197082 0 0)
(-0.03693134372303655 0 0)
(-0.02048451900008388 0 0)
(-0.003238248970081626 0 0)
(0.01442921225335065 0 0)
(0.03221358716994312 0 0)
(0.0498921356697343 0 0)
(0.06722523447114453 0 0)
(0.0836324882375709 0 0)
(0.09759885132400398 0 0)
(0.1066083980906475 0 0)
(0.1097827649435259 0 0)
(0.1101176842935628 0 0)
(0.1100934062236239 0 0)
(0.1098534803230366 0 0)
(0.1092035351767712 0 0)
(0.1078453047087462 0 0)
(0.1054796862479793 0 0)
(0.1017981076592024 0 0)
(0.09651410233678083 0 0)
(0.08938996672803848 0 0)
(0.08026815793347079 0 0)
(0.0690992221825753 0 0)
(0.05595782462530851 0 0)
(0.04104299401304318 0 0)
(0.02466127252813551 0 0)
(0.007188088567773403 0 0)
(-0.01099194368266206 0 0)
(-0.0295408805880937 0 0)
(-0.04816691451818721 0 0)
(-0.06649501875278645 0 0)
(-0.08370723417031493 0 0)
(-0.09795516765884615 0 0)
(-0.1065856284204782 0 0)
(-0.1092931606333021 0 0)
(-0.1095218739705848 0 0)
(-0.1094646594571374 0 0)
(-0.1092311110150601 0 0)
(-0.1085621572927276 0 0)
(-0.1072080921092573 0 0)
(-0.1048802879899409 0 0)
(-0.1012927299199874 0 0)
(-0.09617962714415082 0 0)
(-0.08932148242908992 0 0)
(-0.0805695482822107 0 0)
(-0.06986880793478134 0 0)
(-0.05727557867789469 0 0)
(-0.04296079584675601 0 0)
(-0.02719202539788649 0 0)
(-0.0102977157145792 0 0)
(0.007376520130221695 0 0)
(0.02550960223716487 0 0)
(0.04382019214904614 0 0)
(0.0619878580950254 0 0)
(0.07936043920522393 0 0)
(0.09438566201665986 0 0)
(0.1044513430720542 0 0)
(0.108314625527113 0 0)
(0.1088150720975377 0 0)
(0.108807123979397 0 0)
(0.1086278055507973 0 0)
(0.1081137473289015 0 0)
(0.1069977097682161 0 0)
(0.1050116380391999 0 0)
(0.1018717279905948 0 0)
(0.09730387570215221 0 0)
(0.09106386814059646 0 0)
(0.08296315575983643 0 0)
(0.07289354495931846 0 0)
(0.0608451351007592 0 0)
(0.04691487310354343 0 0)
(0.03130345683384488 0 0)
(0.01429438030968443 0 0)
(-0.003786411636423936 0 0)
(-0.02261158399652731 0 0)
(-0.04185115695749963 0 0)
(-0.06106083725974165 0 0)
(-0.07935044485761904 0 0)
(-0.09480219328197764 0 0)
(-0.1045731122198163 0 0)
(-0.1079321413863312 0 0)
(-0.1082885659797427 0 0)
(-0.1082496926112584 0 0)
(-0.1080712969067731 0 0)
(-0.1075279786064413 0 0)
(-0.1063951703939768 0 0)
(-0.1044098848322674 0 0)
(-0.1013069729833482 0 0)
(-0.09683233431095949 0 0)
(-0.09076353810050977 0 0)
(-0.08292927111162536 0 0)
(-0.0732295624125429 0 0)
(-0.061653781236573 0 0)
(-0.04828876323002109 0 0)
(-0.03331169291952211 0 0)
(-0.01697016601843939 0 0)
(0.0004458699788634936 0 0)
(0.01863611896926895 0 0)
(0.03730503560751939 0 0)
(0.05609696934489111 0 0)
(0.07433864503359727 0 0)
(0.09050432112701437 0 0)
(0.1019185065368549 0 0)
(0.1068097298704882 0 0)
(0.1076088406338554 0 0)
(0.1076202629370677 0 0)
(0.1074921630921662 0 0)
(0.1070927944759411 0 0)
(0.1061800484299527 0 0)
(0.104510634291612 0 0)
(0.1018215418183304 0 0)
(0.09785273233341772 0 0)
(0.09236192772589424 0 0)
(0.08514522116036002 0 0)
(0.07605756159519689 0 0)
(0.06502989520898422 0 0)
(0.05208137722016178 0 0)
(0.03732397393076738 0 0)
(0.02095331107764625 0 0)
(0.003224115190534229 0 0)
(-0.01557565829358361 0 0)
(-0.0351192630228109 0 0)
(-0.05494613024652588 0 0)
(-0.07416831684872305 0 0)
(-0.09090230239867857 0 0)
(-0.1021574607289284 0 0)
(-0.1065321018247821 0 0)
(-0.1071322741087469 0 0)
(-0.1071128371487489 0 0)
(-0.1069850737770388 0 0)
(-0.1065522926055647 0 0)
(-0.1056111123933202 0 0)
(-0.1039186713033686 0 0)
(-0.1012280302097649 0 0)
(-0.09729721550189693 0 0)
(-0.09190577666272236 0 0)
(-0.08487059720687957 0 0)
(-0.07606338177565228 0 0)
(-0.06542714307915992 0 0)
(-0.05298564124611529 0 0)
(-0.03884256387936363 0 0)
(-0.0231724620414312 0 0)
(-0.006204532880801319 0 0)
(0.01180022948570085 0 0)
(0.03056091393931616 0 0)
(0.04972294619873369 0 0)
(0.06864028022803174 0 0)
(0.08589072258433027 0 0)
(0.09883849795317451 0 0)
(0.1051345507314649 0 0)
(0.1064560213638215 0 0)
(0.1065008541357204 0 0)
(0.1064156176849781 0 0)
(0.1061146831223119 0 0)
(0.1053763682209844 0 0)
(0.103979098131265 0 0)
(0.1016764172284727 0 0)
(0.09822120797913959 0 0)
(0.09337637116497458 0 0)
(0.08693126235109833 0 0)
(0.07871823055108212 0 0)
(0.06862791017283777 0 0)
(0.05662241941889606 0 0)
(0.04274365951941081 0 0)
(0.02711154240080671 0 0)
(0.009911364840256854 0 0)
(-0.008619508661821252 0 0)
(-0.02818283905732126 0 0)
(-0.04834171600919632 0 0)
(-0.06827089479568767 0 0)
(-0.08622059510116542 0 0)
(-0.0991773700890954 0 0)
(-0.1049716759055955 0 0)
(-0.1060125282017183 0 0)
(-0.1060235499448006 0 0)
(-0.1059410565381649 0 0)
(-0.1056071019426972 0 0)
(-0.1048365437575315 0 0)
(-0.1034025325303633 0 0)
(-0.1010725196022844 0 0)
(-0.09761555948554154 0 0)
(-0.09281547266422346 0 0)
(-0.08648381519034237 0 0)
(-0.0784747340611042 0 0)
(-0.06869917507151034 0 0)
(-0.05713426981664297 0 0)
(-0.04382645352099322 0 0)
(-0.02888940775838872 0 0)
(-0.01249550388731301 0 0)
(0.005139819360730801 0 0)
(0.02376567876310739 0 0)
(0.04305175295773919 0 0)
(0.06241233795398202 0 0)
(0.08058605582131308 0 0)
(0.09510116090928802 0 0)
(0.1031353434181695 0 0)
(0.1052878279278699 0 0)
(0.1054270207656096 0 0)
(0.105373170726226 0 0)
(0.1051560701979304 0 0)
(0.1045707568550794 0 0)
(0.103412275394736 0 0)
(0.1014483823211253 0 0)
(0.09844285448231362 0 0)
(0.09416445862087598 0 0)
(0.08840060358477884 0 0)
(0.08097038278085697 0 0)
(0.07173732207227539 0 0)
(0.0606223181545243 0 0)
(0.04761398725441792 0 0)
(0.03277110377529677 0 0)
(0.01621724875963412 0 0)
(-0.001863295765220515 0 0)
(-0.02121327280933847 0 0)
(-0.04144050189620244 0 0)
(-0.06181634629403535 0 0)
(-0.08079645372570138 0 0)
(-0.09550773098666156 0 0)
(-0.1031042963353182 0 0)
(-0.1048902210695952 0 0)
(-0.1049717815508148 0 0)
(-0.1049247814319589 0 0)
(-0.1046759318257019 0 0)
(-0.1040572137570492 0 0)
(-0.1028535136646065 0 0)
(-0.1008449743334804 0 0)
(-0.09780946534301643 0 0)
(-0.09353525864486251 0 0)
(-0.08783173955369171 0 0)
(-0.08054198686076551 0 0)
(-0.07155465169348943 0 0)
(-0.0608128509461764 0 0)
(-0.04831970297248434 0 0)
(-0.03414025398996109 0 0)
(-0.01839734014169359 0 0)
(-0.001261671936096972 0 0)
(0.01705132734528752 0 0)
(0.03624675978366988 0 0)
(0.0558156229718658 0 0)
(0.07468732579189025 0 0)
(0.09065937391335327 0 0)
(0.1006540701456911 0 0)
(0.1040258714824904 0 0)
(0.104380509939635 0 0)
(0.104353847004155 0 0)
(0.1042061758718676 0 0)
(0.1037560384602769 0 0)
(0.1028091786542072 0 0)
(0.1011452923603086 0 0)
(0.09853808347693128 0 0)
(0.09476277127514118 0 0)
(0.08960747238677408 0 0)
(0.08288348984117139 0 0)
(0.07443622214081795 0 0)
(0.06415731031069871 0 0)
(0.05199516080768115 0 0)
(0.03795967980820832 0 0)
(0.02212238324718536 0 0)
(0.004618639705565746 0 0)
(-0.01433920796180364 0 0)
(-0.03441402808238492 0 0)
(-0.05498574626883213 0 0)
(-0.07474368746328938 0 0)
(-0.09109102836466673 0 0)
(-0.1007609219520079 0 0)
(-0.1036934703054151 0 0)
(-0.1039456309656213 0 0)
(-0.1039231433325001 0 0)
(-0.1037447493794612 0 0)
(-0.1032608110613109 0 0)
(-0.102264206496883 0 0)
(-0.1005462320899747 0 0)
(-0.09789196348324086 0 0)
(-0.09409330080870457 0 0)
(-0.0889584054779321 0 0)
(-0.08232299337360248 0 0)
(-0.07406049249873292 0 0)
(-0.06408960213449529 0 0)
(-0.05238051208540124 0 0)
(-0.03895971381270474 0 0)
(-0.02390931002026619 0 0)
(-0.007360164145939822 0 0)
(0.01050927904820002 0 0)
(0.02944434108612724 0 0)
(0.04901197385317286 0 0)
(0.06832817309496932 0 0)
(0.08552125867931253 0 0)
(0.09753412080749035 0 0)
(0.102558909974551 0 0)
(0.1033602864664534 0 0)
(0.1033543476259545 0 0)
(0.1032663446288484 0 0)
(0.102925926434432 0 0)
(0.1021630560212376 0 0)
(0.1007649331005652 0 0)
(0.09851480074615405 0 0)
(0.0951936580329636 0 0)
(0.09059044987953828 0 0)
(0.08451116524661578 0 0)
(0.07678892867879904 0 0)
(0.06729447021785831 0 0)
(0.05594552220920841 0 0)
(0.04271376994115222 0 0)
(0.02762955582017799 0 0)
(0.01078636461867003 0 0)
(-0.007648602460240731 0 0)
(-0.02739638538719686 0 0)
(-0.04794175788604101 0 0)
(-0.06820362362296303 0 0)
(-0.08594537210346752 0 0)
(-0.0977933228955868 0 0)
(-0.1023185474104151 0 0)
(-0.1029307643786551 0 0)
(-0.1029249879110244 0 0)
(-0.1028112334608586 0 0)
(-0.1024444471562377 0 0)
(-0.1016352003810917 0 0)
(-0.1001805835165025 0 0)
(-0.09787206038043228 0 0)
(-0.09450527657419232 0 0)
(-0.08988900155215976 0 0)
(-0.08385428181460368 0 0)
(-0.07626302567118567 0 0)
(-0.06701579564248876 0 0)
(-0.05605856007474783 0 0)
(-0.04338724298295712 0 0)
(-0.02904857437530546 0 0)
(-0.01313828821442375 0 0)
(0.004197290895945794 0 0)
(0.02274210909919419 0 0)
(0.04213795134930905 0 0)
(0.06167219250416452 0 0)
(0.07980434756384785 0 0)
(0.09370734063646161 0 0)
(0.1007195052176537 0 0)
(0.1022999107683091 0 0)
(0.1023649215063906 0 0)
(0.1023133394266908 0 0)
(0.1020726334936561 0 0)
(0.1014734980848917 0 0)
(0.1003162810463384 0 0)
(0.09839020839533308 0 0)
(0.09548120194018855 0 0)
(0.09138040123088288 0 0)
(0.08589130867444188 0 0)
(0.07883867522499148 0 0)
(0.07007868725901373 0 0)
(0.05950752887833346 0 0)
(0.04706735018070663 0 0)
(0.0327527645566589 0 0)
(0.01661967638209319 0 0)
(-0.001203831908742057 0 0)
(-0.02049097140900832 0 0)
(-0.04082339540879382 0 0)
(-0.06132914301847402 0 0)
(-0.08014983186885599 0 0)
(-0.09408411642032412 0 0)
(-0.1006107400009499 0 0)
(-0.1019053328935593 0 0)
(-0.1019463738578257 0 0)
(-0.1018724913801972 0 0)
(-0.101606949173772 0 0)
(-0.1009595751152328 0 0)
(-0.09974178992103523 0 0)
(-0.09774917526732167 0 0)
(-0.09478036988319588 0 0)
(-0.0906438732660399 0 0)
(-0.08516696609718188 0 0)
(-0.07820296457727115 0 0)
(-0.06963799422980473 0 0)
(-0.05939840353878581 0 0)
(-0.04745663110240846 0 0)
(-0.03383232606752688 0 0)
(-0.01859104277970788 0 0)
(-0.001847969000616381 0 0)
(0.01621536893724345 0 0)
(0.03530072665964672 0 0)
(0.05483934786071696 0 0)
(0.07360371138638208 0 0)
(0.08914140177317051 0 0)
(0.09835080944608324 0 0)
(0.1011542734298249 0 0)
(0.1013972861838583 0 0)
(0.1013764931332736 0 0)
(0.1012066942117049 0 0)
(0.100746717745194 0 0)
(0.09979858115545774 0 0)
(0.09816188638254408 0 0)
(0.09562721672595563 0 0)
(0.09198754265917061 0 0)
(0.08704499267307894 0 0)
(0.08061873106410931 0 0)
(0.07255318383531673 0 0)
(0.06272625576794473 0 0)
(0.05105718253988005 0 0)
(0.03751394053911391 0 0)
(0.02212054664503678 0 0)
(0.004967045608840119 0 0)
(-0.01376665843481365 0 0)
(-0.0337407837284518 0 0)
(-0.05426127877580195 0 0)
(-0.07383457159169392 0 0)
(-0.08961761092984986 0 0)
(-0.09841440330776666 0 0)
(-0.1008035426718176 0 0)
(-0.1009674048607106 0 0)
(-0.1009313310158812 0 0)
(-0.1007459247790973 0 0)
(-0.1002447788822457 0 0)
(-0.09924120661318886 0 0)
(-0.09753713149668757 0 0)
(-0.0949337295738308 0 0)
(-0.09124004454292693 0 0)
(-0.08628056374991401 0 0)
(-0.07990214875778998 0 0)
(-0.07198083920017055 0 0)
(-0.06242831707158978 0 0)
(-0.05119688992145734 0 0)
(-0.0382822835922187 0 0)
(-0.02372539637619512 0 0)
(-0.007615596097906582 0 0)
(0.009898928762051104 0 0)
(0.02857506202451828 0 0)
(0.0479594804864014 0 0)
(0.06708504375503679 0 0)
(0.08391843635353864 0 0)
(0.09531542062934513 0 0)
(0.09978998546647444 0 0)
(0.1004272658299787 0 0)
(0.1004252264045697 0 0)
(0.100320378475821 0 0)
(0.09997946044339091 0 0)
(0.09922033114359592 0 0)
(0.09784721798196989 0 0)
(0.09565566116731399 0 0)
(0.09244080618548066 0 0)
(0.08800389671473836 0 0)
(0.08216018744087857 0 0)
(0.07474669547336678 0 0)
(0.06562872244267294 0 0)
(0.05470675237497998 0 0)
(0.04192546499532984 0 0)
(0.02728268822515682 0 0)
(0.01083716635080801 0 0)
(-0.007274092264721759 0 0)
(-0.02678085702262375 0 0)
(-0.04713145123268707 0 0)
(-0.06714189431553583 0 0)
(-0.08441623892299675 0 0)
(-0.09555320657068024 0 0)
(-0.0995281493714588 0 0)
(-0.1000050783556071 0 0)
(-0.09998434072170125 0 0)
(-0.09986772998518921 0 0)
(-0.09948649423774136 0 0)
(-0.09867247072038472 0 0)
(-0.09723013831209944 0 0)
(-0.0949642970081684 0 0)
(-0.09168415540418737 0 0)
(-0.08721158892214675 0 0)
(-0.08138737133545446 0 0)
(-0.07407802788288063 0 0)
(-0.0651827867942443 0 0)
(-0.05463833141119289 0 0)
(-0.04242106439780707 0 0)
(-0.02854987033106726 0 0)
(-0.01309109621395098 0 0)
(0.003833800219037303 0 0)
(0.02202525795095842 0 0)
(0.0411230489440166 0 0)
(0.06037335199880863 0 0)
(0.07814425993222107 0 0)
(0.09153611941091147 0 0)
(0.09804944606285043 0 0)
(0.09943187666944564 0 0)
(0.09948406317746261 0 0)
(0.0994194987475896 0 0)
(0.09917800892709847 0 0)
(0.09857956784840924 0 0)
(0.09744106321981874 0 0)
(0.09556165295666313 0 0)
(0.09273903987817796 0 0)
(0.08877461194519963 0 0)
(0.08348047656121706 0 0)
(0.07668634816599808 0 0)
(0.06824660170088505 0 0)
(0.05804771681853214 0 0)
(0.04601605032015005 0 0)
(0.03212559039778257 0 0)
(0.01640691370723465 0 0)
(-0.001036820648660301 0 0)
(-0.01999060041676353 0 0)
(-0.04002188476121082 0 0)
(-0.06020936527497225 0 0)
(-0.07860414430578737 0 0)
(-0.09194666541423772 0 0)
(-0.09793093529400684 0 0)
(-0.09902542109039268 0 0)
(-0.09904651420240267 0 0)
(-0.09897700851226825 0 0)
(-0.09870122443206047 0 0)
(-0.09805437740331464 0 0)
(-0.09684883263613044 0 0)
(-0.09489148308553434 0 0)
(-0.09199253195888295 0 0)
(-0.08797227231202207 0 0)
(-0.08266723278953514 0 0)
(-0.07593710643646479 0 0)
(-0.06767122400862102 0 0)
(-0.05779258121896992 0 0)
(-0.04626060733939514 0 0)
(-0.03307555073918131 0 0)
(-0.01828357299843151 0 0)
(-0.001981112474861206 0 0)
(0.01566996333151176 0 0)
(0.0343817745475843 0 0)
(0.0535675583899264 0 0)
(0.07194959744651953 0 0)
(0.08702990189436544 0 0)
(0.0957819191018968 0 0)
(0.09834692583221895 0 0)
(0.09855425916662522 0 0)
(0.09851710362901667 0 0)
(0.09835799934680818 0 0)
(0.09790020004384647 0 0)
(0.096971069027707 0 0)
(0.09537373401616417 0 0)
(0.09290904865785646 0 0)
(0.08937938815101044 0 0)
(0.08459552832604129 0 0)
(0.07838287228677562 0 0)
(0.07058814469302155 0 0)
(0.06108627773846545 0 0)
(0.04978754199153375 0 0)
(0.03664532885674245 0 0)
(0.02166540517387949 0 0)
(0.004919562164397306 0 0)
(-0.01342533280079945 0 0)
(-0.03303013229554405 0 0)
(-0.05317870735950898 0 0)
(-0.07232345759823748 0 0)
(-0.08756924874525088 0 0)
(-0.09583268562858359 0 0)
(-0.09796564642907615 0 0)
(-0.09809691589202353 0 0)
(-0.09805874164257185 0 0)
(-0.09787130640587 0 0)
(-0.09737258827455983 0 0)
(-0.09638309964643402 0 0)
(-0.09471280868110486 0 0)
(-0.09217201764303162 0 0)
(-0.0885790008820941 0 0)
(-0.08376667167140009 0 0)
(-0.07758877967298919 0 0)
(-0.06992545249000276 0 0)
(-0.06068786444711046 0 0)
(-0.04982229989455377 0 0)
(-0.03731377502102497 0 0)
(-0.02318917893738554 0 0)
(-0.007521679132289 0 0)
(0.009556157727789861 0 0)
(0.02781037059266706 0 0)
(0.04678441826867909 0 0)
(0.06549396898334536 0 0)
(0.08188444009764116 0 0)
(0.09284367774421369 0 0)
(0.09703940781378136 0 0)
(0.09760969128245763 0 0)
(0.09760223752620618 0 0)
(0.09750054772935529 0 0)
(0.09716312612182476 0 0)
(0.09641966677833752 0 0)
(0.09508014006563885 0 0)
(0.09294798792169273 0 0)
(0.08982639529425317 0 0)
(0.08552517996861375 0 0)
(0.07986606608048491 0 0)
(0.07268840962131697 0 0)
(0.06385695223429751 0 0)
(0.05326972590564015 0 0)
(0.04086399044761455 0 0)
(0.02662332546548014 0 0)
(0.01059174739280139 0 0)
(-0.007100949904239551 0 0)
(-0.02618602476181695 0 0)
(-0.04611104487967639 0 0)
(-0.06567683731085219 0 0)
(-0.08245558897620597 0 0)
(-0.093090608793271 0 0)
(-0.0967626675388184 0 0)
(-0.09717694358810094 0 0)
(-0.09716932346853099 0 0)
(-0.09703926334128482 0 0)
(-0.09666446047296806 0 0)
(-0.0958598696287956 0 0)
(-0.09444346829575309 0 0)
(-0.09222732364853543 0 0)
(-0.08902932995226386 0 0)
(-0.08467933167487669 0 0)
(-0.07902591311257277 0 0)
(-0.07194159901382323 0 0)
(-0.06332674690612926 0 0)
(-0.0531140822388249 0 0)
(-0.04127394067736467 0 0)
(-0.02781742557738098 0 0)
(-0.01279822062149021 0 0)
(0.003677889094179277 0 0)
(0.02142045535495142 0 0)
(0.04006786085342819 0 0)
(0.05886415690749543 0 0)
(0.07618430904763659 0 0)
(0.0891591873977482 0 0)
(0.09538356108268978 0 0)
(0.09666553880815955 0 0)
(0.09670311868928803 0 0)
(0.09665138968024144 0 0)
(0.09640576053808288 0 0)
(0.0958193401896328 0 0)
(0.09470495898121453 0 0)
(0.09287144034935654 0 0)
(0.09012395691696899 0 0)
(0.08627178827140541 0 0)
(0.0811338202300354 0 0)
(0.07454457684301705 0 0)
(0.0663605583619164 0 0)
(0.05646703773699855 0 0)
(0.04478539487027108 0 0)
(0.0312813787842481 0 0)
(0.01597576462204151 0 0)
(-0.001037574728937617 0 0)
(-0.01955039951869395 0 0)
(-0.03913154181717843 0 0)
(-0.05885197314553693 0 0)
(-0.07675063434146072 0 0)
(-0.08959839097474226 0 0)
(-0.095238922599688 0 0)
(-0.09623180709843238 0 0)
(-0.09624771289347882 0 0)
(-0.09617674834360941 0 0)
(-0.09590366870560046 0 0)
(-0.09526658977816932 0 0)
(-0.09408489302219372 0 0)
(-0.09217244652930213 0 0)
(-0.08934667781755476 0 0)
(-0.08543501717948616 0 0)
(-0.08028099159374223 0 0)
(-0.07374974572403009 0 0)
(-0.06573301439244336 0 0)
(-0.05615344640378336 0 0)
(-0.0449682810180704 0 0)
(-0.0321726446093826 0 0)
(-0.01780323222562995 0 0)
(-0.001945230431146148 0 0)
(0.01524762749283464 0 0)
(0.0334921452777729 0 0)
(0.05220759880369816 0 0)
(0.07012707180064583 0 0)
(0.08477558965225661 0 0)
(0.09319482668099027 0 0)
(0.09560373313529341 0 0)
(0.09578733513806208 0 0)
(0.09572165531268079 0 0)
(0.09554597468557534 0 0)
(0.09510775640814974 0 0)
(0.09424629576575136 0 0)
(0.09277452685062974 0 0)
(0.09048430834923263 0 0)
(0.08714993489235505 0 0)
(0.08253816309993467 0 0)
(0.07642776764371678 0 0)
(0.06863534564253769 0 0)
(0.05903936728925353 0 0)
(0.04759637691051534 0 0)
(0.03434914521109305 0 0)
(0.0194255316799704 0 0)
(0.003030351535198482 0 0)
(-0.0145461720220663 0 0)
(-0.03290923739192864 0 0)
(-0.05117528755257215 0 0)
(-0.06794017124417399 0 0)
(-0.08015549588538494 0 0)
(-0.08438458315745705 0 0)
(-0.08399333579477997 0 0)
(-0.08186069661839125 0 0)
(-0.07883726123144295 0 0)
(-0.07560655961438087 0 0)
(-0.07251980574198197 0 0)
(-0.06947345348431853 0 0)
(-0.06552851869277709 0 0)
(-0.06145452310663147 0 0)
(-0.05654880612142511 0 0)
(-0.05058281142741743 0 0)
(-0.04333337039159049 0 0)
(-0.03471890734732169 0 0)
(-0.02479756753849936 0 0)
(-0.01369792025104824 0 0)
(-0.001577840449308631 0 0)
(0.0113737637077351 0 0)
(0.02491910243650953 0 0)
(0.03887812883632331 0 0)
(0.05310510762203816 0 0)
(0.06722291681379505 0 0)
(0.08051195001245032 0 0)
(0.09058979819377432 0 0)
(0.09451583621910606 0 0)
(0.09426280697680382 0 0)
(0.09184714773895374 0 0)
(0.08784023256987233 0 0)
(0.08317180051858049 0 0)
(0.07833687580983993 0 0)
(0.07344811259593477 0 0)
(0.06840911966566093 0 0)
(0.06272882454703642 0 0)
(0.0557917609301791 0 0)
(0.04818044625920472 0 0)
(0.03952312431822311 0 0)
(0.02976150026261456 0 0)
(0.01894871479188072 0 0)
(0.007215803414999868 0 0)
(-0.005243255961510014 0 0)
(-0.01820658361496838 0 0)
(-0.0314407754779284 0 0)
(-0.04480504790657416 0 0)
(-0.05809368603544755 0 0)
(-0.07099711777336747 0 0)
(-0.08275230357000135 0 0)
(-0.09048933996257011 0 0)
(-0.09282151313322243 0 0)
(-0.09203146739922188 0 0)
(-0.08916704133510986 0 0)
(-0.08480744350203107 0 0)
(-0.07989610801249568 0 0)
(-0.07491929600406369 0 0)
(-0.07020104538706072 0 0)
(-0.06560958222802235 0 0)
(-0.06062187320616085 0 0)
(-0.05556152321479677 0 0)
(-0.04979221666416171 0 0)
(-0.04307612630313204 0 0)
(-0.03521200919925883 0 0)
(-0.02603131123883859 0 0)
(-0.01547127226990243 0 0)
(-0.003629727530613553 0 0)
(0.0092522811048351 0 0)
(0.02290271067816465 0 0)
(0.03706713021640752 0 0)
(0.05142982654713341 0 0)
(0.06528046627667347 0 0)
(0.07779245690033135 0 0)
(0.08816858303295211 0 0)
(0.09418645634108795 0 0)
(0.09560929763143762 0 0)
(0.09457744166189611 0 0)
(0.09174170187771616 0 0)
(0.08759418322196579 0 0)
(0.08273814327938625 0 0)
(0.07746496261779322 0 0)
(0.07200902868929741 0 0)
(0.06621106345982512 0 0)
(0.05952489523588644 0 0)
(0.05234044051751135 0 0)
(0.04417505149531237 0 0)
(0.03485982787707924 0 0)
(0.02434352721582487 0 0)
(0.01272410648908055 0 0)
(0.0002217497510985719 0 0)
(-0.01286118860353327 0 0)
(-0.02617313142989196 0 0)
(-0.03939309182740035 0 0)
(-0.05234481032515091 0 0)
(-0.06459452387198766 0 0)
(-0.07574189717136641 0 0)
(-0.08433453129358534 0 0)
(-0.08827505863911601 0 0)
(-0.08874158915729626 0 0)
(-0.08719901861927515 0 0)
(-0.08384434648973539 0 0)
(-0.07942008778742946 0 0)
(-0.07452144355425437 0 0)
(-0.06949390983464546 0 0)
(-0.06442717801602089 0 0)
(-0.05912482199648164 0 0)
(-0.05391834390781831 0 0)
(-0.04819016291828174 0 0)
(-0.04180158811473886 0 0)
(-0.03454664775353235 0 0)
(-0.02622828341085806 0 0)
(-0.01664515046624887 0 0)
(-0.005658589388221716 0 0)
(0.006713158148014131 0 0)
(0.02026972714499055 0 0)
(0.03455272993105703 0 0)
(0.04933539879015177 0 0)
(0.06238489645070543 0 0)
(0.08065333076101826 0 0)
)
;

boundaryField
{
    inlet
    {
        type            zeroGradient;
    }
    outlet
    {
        type            pressureInletOutletVelocity;
        value           uniform (0.08065333076101826 0 0);
    }
    frontAndBack
    {
        type            empty;
    }
}


// ************************************************************************* //
