/*--------------------------------*- C++ -*----------------------------------*\
| =========                 |                                                 |
| \\      /  F ield         | OpenFOAM: The Open Source CFD Toolbox           |
|  \\    /   O peration     | Version:  v2012                                 |
|   \\  /    A nd           | Website:  www.openfoam.com                      |
|    \\/     M anipulation  |                                                 |
\*---------------------------------------------------------------------------*/
FoamFile
{
    version     2.0;
    format      ascii;
    class       volVectorField;
    location    "0.008";
    object      UMean;
}
// * * * * * * * * * * * * * * * * * * * * * * * * * * * * * * * * * * * * * //

dimensions      [0 1 -1 0 0 0 0];


internalField   nonuniform List<vector> 
1000
(
(-3.643729411979281e-05 0 0)
(1.013231708772605e-05 0 0)
(3.525858024721742e-05 0 0)
(8.409647591357937e-05 0 0)
(0.0001412464339628996 0 0)
(0.0002066035897125652 0 0)
(0.0002867153522618671 0 0)
(0.0003738821755036802 0 0)
(0.0004728355070349298 0 0)
(0.00057731926020168 0 0)
(0.0006856778211514518 0 0)
(0.0007937539313638256 0 0)
(0.0009014678198017778 0 0)
(0.001007671294800664 0 0)
(0.00111089368317449 0 0)
(0.001208760355787318 0 0)
(0.001299266746176605 0 0)
(0.001380417776705341 0 0)
(0.001450918577570485 0 0)
(0.001509340642576337 0 0)
(0.001554942042450287 0 0)
(0.001586578547517987 0 0)
(0.001603987525841601 0 0)
(0.001606509311517796 0 0)
(0.001594384041292982 0 0)
(0.001567528084567377 0 0)
(0.001526769324799716 0 0)
(0.001472562225854526 0 0)
(0.001406000947604781 0 0)
(0.001327618276212827 0 0)
(0.001238525512024373 0 0)
(0.001140060088452861 0 0)
(0.00103588102977118 0 0)
(0.0009298155344864786 0 0)
(0.0008238410656388185 0 0)
(0.0007181379946365266 0 0)
(0.0006134986611275277 0 0)
(0.0005111184769376975 0 0)
(0.000412767136975476 0 0)
(0.0003205474779958184 0 0)
(0.0002366586861607954 0 0)
(0.0001630928139538408 0 0)
(0.0001014767473374913 0 0)
(5.299272218785238e-05 0 0)
(1.846186998277147e-05 0 0)
(-1.590638646508376e-06 0 0)
(-6.886912230357059e-06 0 0)
(2.638517420279456e-06 0 0)
(2.679979201494884e-05 0 0)
(6.520611777341819e-05 0 0)
(0.0001172940004923529 0 0)
(0.0001824793566378458 0 0)
(0.0002601579307644524 0 0)
(0.0003493995954430113 0 0)
(0.0004479281686728073 0 0)
(0.0005515414289708075 0 0)
(0.0006563418236159963 0 0)
(0.0007611023098833027 0 0)
(0.0008656028832036169 0 0)
(0.0009690918814590845 0 0)
(0.001070725228037036 0 0)
(0.001168768839611701 0 0)
(0.001261588961321648 0 0)
(0.001346838052943657 0 0)
(0.001422656292506235 0 0)
(0.001486934208149145 0 0)
(0.001538410179721758 0 0)
(0.001575807000239653 0 0)
(0.001598741188721061 0 0)
(0.001606730604250179 0 0)
(0.001600022678321362 0 0)
(0.001578585521586512 0 0)
(0.001542997871646674 0 0)
(0.001493424295962309 0 0)
(0.00143046502113843 0 0)
(0.001354357567052217 0 0)
(0.001266342135607062 0 0)
(0.001168757703528306 0 0)
(0.001066295294592817 0 0)
(0.0009625819014495624 0 0)
(0.0008589863405120343 0 0)
(0.0007555991063830368 0 0)
(0.0006530100133836142 0 0)
(0.0005520690667090832 0 0)
(0.0004541044072508315 0 0)
(0.0003607654485638162 0 0)
(0.0002740436567500182 0 0)
(0.0001959720116029053 0 0)
(0.0001286079767778702 0 0)
(7.366285563637782e-05 0 0)
(3.253550945174683e-05 0 0)
(6.086234224551876e-06 0 0)
(-5.19893929574296e-06 0 0)
(-1.307822152662499e-06 0 0)
(1.763505295128724e-05 0 0)
(5.124240341595363e-05 0 0)
(9.922572811069478e-05 0 0)
(0.0001611978082467105 0 0)
(0.000236740827769454 0 0)
(0.0003246307749886421 0 0)
(0.0004219239364074875 0 0)
(0.0005237846090833433 0 0)
(0.000626590672300573 0 0)
(0.0007293211632839069 0 0)
(0.000831880606844345 0 0)
(0.0009336034667893936 0 0)
(0.001033904406304323 0 0)
(0.00113135739080095 0 0)
(0.001224663142476905 0 0)
(0.001311769484414481 0 0)
(0.001390934391849768 0 0)
(0.001459938820427443 0 0)
(0.001517201251398546 0 0)
(0.001560995619223839 0 0)
(0.001590498155709219 0 0)
(0.001604846843903993 0 0)
(0.001604086806232521 0 0)
(0.001588083993856592 0 0)
(0.00155735833156092 0 0)
(0.001511989893048593 0 0)
(0.00145251728612453 0 0)
(0.001379146546230452 0 0)
(0.001293257485888893 0 0)
(0.001197485375256306 0 0)
(0.001096815535226239 0 0)
(0.0009948932070088278 0 0)
(0.0008930883479422226 0 0)
(0.0007914041744325874 0 0)
(0.0006903774110918981 0 0)
(0.0005906120839809434 0 0)
(0.0004932516502051599 0 0)
(0.0003995926708530264 0 0)
(0.0003114129573863383 0 0)
(0.0002305142080153808 0 0)
(0.0001589684566465602 0 0)
(9.859037889418487e-05 0 0)
(5.116259124804541e-05 0 0)
(1.791457240166059e-05 0 0)
(-1.67814725624027e-07 0 0)
(-2.73615127185805e-06 0 0)
(1.039056605167075e-05 0 0)
(3.894903076693155e-05 0 0)
(8.276665826948501e-05 0 0)
(0.000141404864235971 0 0)
(0.0002144207492510009 0 0)
(0.0003003204144812662 0 0)
(0.0003959320281304195 0 0)
(0.0004961328189216766 0 0)
(0.0005973259351737563 0 0)
(0.000698440034145993 0 0)
(0.0007994358405223523 0 0)
(0.0008997446656988957 0 0)
(0.0009989157614202857 0 0)
(0.001095730410449919 0 0)
(0.001189126891516892 0 0)
(0.001277282020621827 0 0)
(0.001358654552442355 0 0)
(0.00143110477054534 0 0)
(0.001493018222601341 0 0)
(0.001542462293075218 0 0)
(0.001578291529908741 0 0)
(0.001599253901658038 0 0)
(0.001604998695479365 0 0)
(0.001595067453311991 0 0)
(0.001569752413782353 0 0)
(0.001529017376924622 0 0)
(0.00147339093363355 0 0)
(0.001403127505950248 0 0)
(0.001319737158503037 0 0)
(0.001225972488763197 0 0)
(0.001126985983867159 0 0)
(0.00102658715784623 0 0)
(0.0009262844375298751 0 0)
(0.0008260362553292423 0 0)
(0.0007263273008416539 0 0)
(0.000627604003887004 0 0)
(0.0005308635126320224 0 0)
(0.0004371677815133131 0 0)
(0.0003481038593127388 0 0)
(0.0002652528136069996 0 0)
(0.0001905936437654808 0 0)
(0.0001258879686419737 0 0)
(7.307182699474129e-05 0 0)
(3.359003273621931e-05 0 0)
(8.828239047686404e-06 0 0)
(-4.93721462824425e-07 0 0)
(6.230927050266849e-06 0 0)
(2.902905578286885e-05 0 0)
(6.795775426777062e-05 0 0)
(0.0001226410065850995 0 0)
(0.0001926156206287532 0 0)
(0.0002762073443930446 0 0)
(0.0003700334570308832 0 0)
(0.0004687178594551151 0 0)
(0.0005685156422661565 0 0)
(0.0006682423117791328 0 0)
(0.0007679112214049474 0 0)
(0.0008669925805640214 0 0)
(0.0009651670491784371 0 0)
(0.001061349187618892 0 0)
(0.001154665206767963 0 0)
(0.001243481281632661 0 0)
(0.001326431731875821 0 0)
(0.00140151063105018 0 0)
(0.001467152652951527 0 0)
(0.001521367224458016 0 0)
(0.001562834843183806 0 0)
(0.001590028639984354 0 0)
(0.001602264818609737 0 0)
(0.001598714645444265 0 0)
(0.001579370230855381 0 0)
(0.001543938601950686 0 0)
(0.001492829838739981 0 0)
(0.001426255208961509 0 0)
(0.001345759660173086 0 0)
(0.001254166551829012 0 0)
(0.001156782249096731 0 0)
(0.001057724926787964 0 0)
(0.0009587188717316339 0 0)
(0.0008597230493051809 0 0)
(0.0007611798270083103 0 0)
(0.0006634085139586589 0 0)
(0.0005672982303103039 0 0)
(0.0004737223601020034 0 0)
(0.0003841142048718159 0 0)
(0.0002998529879116685 0 0)
(0.0002227982416754467 0 0)
(0.0001546152569655285 0 0)
(9.726854318252057e-05 0 0)
(5.231183629954108e-05 0 0)
(2.137561352495573e-05 0 0)
(5.490709800150825e-06 0 0)
(5.649541154670695e-06 0 0)
(2.222102370426115e-05 0 0)
(5.558623349550432e-05 0 0)
(0.0001055564507044425 0 0)
(0.0001717838757352678 0 0)
(0.000252564578244646 0 0)
(0.0003444043601684795 0 0)
(0.0004416402274455851 0 0)
(0.000540196144960376 0 0)
(0.0006387077045173995 0 0)
(0.0007371939095412508 0 0)
(0.0008351881067368414 0 0)
(0.0009324496696274463 0 0)
(0.001028012820605175 0 0)
(0.001121145510246571 0 0)
(0.001210371908453031 0 0)
(0.001294485880111609 0 0)
(0.001371618402138067 0 0)
(0.001440288557365346 0 0)
(0.001498522245235674 0 0)
(0.001544921814746024 0 0)
(0.001577793891770812 0 0)
(0.001596194267083842 0 0)
(0.001598995580683064 0 0)
(0.001585860981403613 0 0)
(0.001556225956724596 0 0)
(0.001510270074702649 0 0)
(0.001448058429719554 0 0)
(0.001371029516156854 0 0)
(0.00128193643762777 0 0)
(0.001186203237815909 0 0)
(0.001088379696653522 0 0)
(0.0009905405649740552 0 0)
(0.0008926755191967793 0 0)
(0.0007951869026181122 0 0)
(0.0006983042521765512 0 0)
(0.0006028213300481998 0 0)
(0.0005094665860237718 0 0)
(0.0004195334830943527 0 0)
(0.0003342379842759846 0 0)
(0.0002553067172210222 0 0)
(0.0001842973238602572 0 0)
(0.0001231402995729023 0 0)
(7.342529420099012e-05 0 0)
(3.692751877058552e-05 0 0)
(1.48961771377526e-05 0 0)
(8.631442058928287e-06 0 0)
(1.882181586795973e-05 0 0)
(4.618363172334858e-05 0 0)
(9.079361265815494e-05 0 0)
(0.0001525273789936861 0 0)
(0.0002298219704468027 0 0)
(0.0003192530942988639 0 0)
(0.0004149587599710613 0 0)
(0.0005123620734868097 0 0)
(0.000609775992380874 0 0)
(0.0007071869937007405 0 0)
(0.0008041923779426284 0 0)
(0.0009006020357660513 0 0)
(0.0009955669618815801 0 0)
(0.001088451087891201 0 0)
(0.001177930253971761 0 0)
(0.001262919001842597 0 0)
(0.001341689360518644 0 0)
(0.00141284777073611 0 0)
(0.001474481437411926 0 0)
(0.001525167216518826 0 0)
(0.001563126632158986 0 0)
(0.001587232810355014 0 0)
(0.001596136060935385 0 0)
(0.001589211602127102 0 0)
(0.001565631434615415 0 0)
(0.001525304306616004 0 0)
(0.001468091096619272 0 0)
(0.001395178393514788 0 0)
(0.001309098474573361 0 0)
(0.001215217926660418 0 0)
(0.001118603106351771 0 0)
(0.001021837225149024 0 0)
(0.0009250191962339332 0 0)
(0.0008285119152075258 0 0)
(0.0007324709889987781 0 0)
(0.0006376113894248528 0 0)
(0.000544540056215663 0 0)
(0.0004544373970850703 0 0)
(0.0003683709606373028 0 0)
(0.0002879542443568801 0 0)
(0.0002146215031630476 0 0)
(0.0001502503169689464 0 0)
(9.641080017692269e-05 0 0)
(5.495613927190912e-05 0 0)
(2.727578091893425e-05 0 0)
(1.489554960950836e-05 0 0)
(1.877129409085116e-05 0 0)
(3.991686057395397e-05 0 0)
(7.869285708302562e-05 0 0)
(0.0001352578438244512 0 0)
(0.0002083329647700586 0 0)
(0.0002947972252004913 0 0)
(0.0003887531691055012 0 0)
(0.0004850311000916316 0 0)
(0.0005814154575311811 0 0)
(0.0006778239144370812 0 0)
(0.0007738944970775307 0 0)
(0.0008694968977672075 0 0)
(0.000963865570574399 0 0)
(0.001056459194879926 0 0)
(0.001146068408150634 0 0)
(0.001231722213504403 0 0)
(0.001311815339721766 0 0)
(0.001385046369867583 0 0)
(0.00144957840856151 0 0)
(0.00150399552474638 0 0)
(0.001546490830944438 0 0)
(0.00157581630941472 0 0)
(0.001590469020325064 0 0)
(0.001589590348200701 0 0)
(0.001572130503701962 0 0)
(0.00153773338689994 0 0)
(0.001486028342792907 0 0)
(0.001417871276993031 0 0)
(0.001335415603040281 0 0)
(0.001243743250965838 0 0)
(0.001148393843527034 0 0)
(0.00105263393587081 0 0)
(0.0009568116270750903 0 0)
(0.0008612280007912008 0 0)
(0.0007660117089365223 0 0)
(0.0006717661298036523 0 0)
(0.0005790420122312407 0 0)
(0.0004888737167844443 0 0)
(0.0004022503789824396 0 0)
(0.000320631861655639 0 0)
(0.0002453822875827378 0 0)
(0.0001782694354490261 0 0)
(0.0001208567879075527 0 0)
(7.499115099800723e-05 0 0)
(4.217265622902265e-05 0 0)
(2.405603838158291e-05 0 0)
(2.182332790446729e-05 0 0)
(3.671380140542351e-05 0 0)
(6.93704296017142e-05 0 0)
(0.0001202320349026839 0 0)
(0.0001884103346221924 0 0)
(0.0002712555551300842 0 0)
(0.0003631090103330344 0 0)
(0.0004582042410604327 0 0)
(0.0005536071272270024 0 0)
(0.0006490470949449082 0 0)
(0.0007442236565164181 0 0)
(0.0008390310573273368 0 0)
(0.0009328064941360625 0 0)
(0.001025059308833923 0 0)
(0.001114711621444774 0 0)
(0.001200859153586618 0 0)
(0.001282037555791587 0 0)
(0.001357002728795312 0 0)
(0.001424028316566519 0 0)
(0.001481700877195849 0 0)
(0.001528242967770686 0 0)
(0.001562312644480232 0 0)
(0.001582326672268981 0 0)
(0.001587233418784237 0 0)
(0.001575821245109285 0 0)
(0.001547489836341357 0 0)
(0.001501646806896969 0 0)
(0.001438786381601027 0 0)
(0.00136058091758694 0 0)
(0.001271608177028725 0 0)
(0.001177681374906471 0 0)
(0.001082910657313336 0 0)
(0.0009880417027942872 0 0)
(0.0008933648481913305 0 0)
(0.0007989541422210339 0 0)
(0.0007053469318446298 0 0)
(0.0006130087788700896 0 0)
(0.0005228830427466088 0 0)
(0.0004358540354237269 0 0)
(0.0003532796338155547 0 0)
(0.000276423575703265 0 0)
(0.0002069738318304645 0 0)
(0.0001464400730266166 0 0)
(9.665940613886115e-05 0 0)
(5.917283124337822e-05 0 0)
(3.573010404076873e-05 0 0)
(2.766185662597125e-05 0 0)
(3.639424154515067e-05 0 0)
(6.280089449313535e-05 0 0)
(0.0001075953317515402 0 0)
(0.0001702989352717292 0 0)
(0.0002488524794311428 0 0)
(0.0003381042780985011 0 0)
(0.0004318722982673434 0 0)
(0.0005263159287598579 0 0)
(0.0006208199254925499 0 0)
(0.0007151165784096265 0 0)
(0.0008091406818068621 0 0)
(0.0009023011677834068 0 0)
(0.000994175469320035 0 0)
(0.001083779200440353 0 0)
(0.001170290067963491 0 0)
(0.001252348429767337 0 0)
(0.001328785674171515 0 0)
(0.001397962779083265 0 0)
(0.001458500659005136 0 0)
(0.001508654827966772 0 0)
(0.00154703950899339 0 0)
(0.00157202046058467 0 0)
(0.00158241247152338 0 0)
(0.001576880463750416 0 0)
(0.001554620532678744 0 0)
(0.001514846461114134 0 0)
(0.001457694240514206 0 0)
(0.001384332452870922 0 0)
(0.001298636388022582 0 0)
(0.001206419548479376 0 0)
(0.001112648585097646 0 0)
(0.001018716052891818 0 0)
(0.000924923324703205 0 0)
(0.0008313226000150523 0 0)
(0.0007383646637033033 0 0)
(0.0006464662749673602 0 0)
(0.0005564618336157195 0 0)
(0.0004691712183590911 0 0)
(0.0003858306690945601 0 0)
(0.0003076398126887543 0 0)
(0.0002361765146795968 0 0)
(0.0001729182629836392 0 0)
(0.0001196425967184147 0 0)
(7.792891999944408e-05 0 0)
(4.95511099717644e-05 0 0)
(3.596757752421496e-05 0 0)
(3.871736879951004e-05 0 0)
(5.888558055160515e-05 0 0)
(9.740456590000527e-05 0 0)
(0.0001542044609508068 0 0)
(0.0002278357972342906 0 0)
(0.0003138853595418613 0 0)
(0.0004060562691889574 0 0)
(0.0004995284307427468 0 0)
(0.0005931138102795683 0 0)
(0.0006865398306016143 0 0)
(0.0007797741980339681 0 0)
(0.0008722948814376938 0 0)
(0.0009637445974287964 0 0)
(0.001053217896070851 0 0)
(0.001139976927948887 0 0)
(0.001222742351135061 0 0)
(0.001300433930569453 0 0)
(0.001371474370228489 0 0)
(0.001434550999170395 0 0)
(0.001487934506494932 0 0)
(0.001530253923315928 0 0)
(0.001559818045690177 0 0)
(0.001575387743679434 0 0)
(0.001575496659596845 0 0)
(0.001559226854094576 0 0)
(0.001525578798029075 0 0)
(0.001474427790955375 0 0)
(0.001406397855180379 0 0)
(0.001324633003266619 0 0)
(0.001234533575804699 0 0)
(0.001141860450940599 0 0)
(0.001048820193186108 0 0)
(0.0009559068691148546 0 0)
(0.0008631086198732641 0 0)
(0.0007708301140158318 0 0)
(0.0006794157191343542 0 0)
(0.0005896228692822055 0 0)
(0.0005021888545679495 0 0)
(0.0004182592395025155 0 0)
(0.0003389518395002862 0 0)
(0.0002657590562082814 0 0)
(0.0002001016975943071 0 0)
(0.0001437066783584795 0 0)
(9.815074260052635e-05 0 0)
(6.521893692550614e-05 0 0)
(4.644358549827952e-05 0 0)
(4.345073276394499e-05 0 0)
(5.748076769982978e-05 0 0)
(8.965408477868958e-05 0 0)
(0.0001402579227820105 0 0)
(0.0002084355591327987 0 0)
(0.0002906317371090158 0 0)
(0.0003808038059722526 0 0)
(0.000473234475868946 0 0)
(0.0005659090773540421 0 0)
(0.0006584770682423553 0 0)
(0.0007508984008550872 0 0)
(0.0008427702073327019 0 0)
(0.0009337327171692544 0 0)
(0.001023019347653594 0 0)
(0.001109900446395204 0 0)
(0.001193241678543792 0 0)
(0.001271972310538927 0 0)
(0.001344650213975934 0 0)
(0.001409955950923338 0 0)
(0.001466261512164553 0 0)
(0.001512147774348598 0 0)
(0.001545967591728728 0 0)
(0.001566378967555595 0 0)
(0.001571895219608448 0 0)
(0.00156143583895299 0 0)
(0.001533899999004958 0 0)
(0.001488870038292162 0 0)
(0.001426562581432394 0 0)
(0.001349305575152301 0 0)
(0.001261881307677464 0 0)
(0.001170471776099773 0 0)
(0.001078347543790716 0 0)
(0.000986308631807712 0 0)
(0.0008943260277483695 0 0)
(0.0008027588066544112 0 0)
(0.0007118711397006359 0 0)
(0.0006223695342269469 0 0)
(0.0005348913453041706 0 0)
(0.0004505271333490359 0 0)
(0.0003702880315000725 0 0)
(0.0002956182987648587 0 0)
(0.0002278427093431282 0 0)
(0.0001686680335577429 0 0)
(0.0001196128937031945 0 0)
(8.249347385959426e-05 0 0)
(5.884293756289555e-05 0 0)
(5.038528271671979e-05 0 0)
(5.843847175284566e-05 0 0)
(8.431665038717185e-05 0 0)
(0.0001285603391708906 0 0)
(0.0001908755809530561 0 0)
(0.000268550826238126 0 0)
(0.0003561924885131023 0 0)
(0.000447421233523452 0 0)
(0.0005392070267043313 0 0)
(0.0006309012549376555 0 0)
(0.0007225289209634688 0 0)
(0.0008136924308787603 0 0)
(0.0009041463986816304 0 0)
(0.0009931407363066125 0 0)
(0.001080066533843499 0 0)
(0.001163819253669328 0 0)
(0.001243440382455152 0 0)
(0.001317519392684242 0 0)
(0.001384824237488477 0 0)
(0.001443744552591362 0 0)
(0.001492904878510006 0 0)
(0.001530643148179562 0 0)
(0.001555601678834468 0 0)
(0.001566238727891525 0 0)
(0.0015613941433405 0 0)
(0.00153985406482129 0 0)
(0.001500991483237715 0 0)
(0.001444660606317738 0 0)
(0.001372458995894868 0 0)
(0.001288344579996034 0 0)
(0.001198504977936678 0 0)
(0.001107313546909724 0 0)
(0.001016117742162349 0 0)
(0.0009249709882995604 0 0)
(0.0008341065177877755 0 0)
(0.0007438213670906217 0 0)
(0.0006546527902900792 0 0)
(0.0005672716407492932 0 0)
(0.0004825799972004998 0 0)
(0.0004016258374512819 0 0)
(0.0003256604285846626 0 0)
(0.000256062985623048 0 0)
(0.0001943612703848885 0 0)
(0.0001421628628364775 0 0)
(0.0001011408722582081 0 0)
(7.297173238333507e-05 0 0)
(5.928922514031406e-05 0 0)
(6.161942289822288e-05 0 0)
(8.127099455683503e-05 0 0)
(0.0001191505619351022 0 0)
(0.000175284026440155 0 0)
(0.000247905402117528 0 0)
(0.0003323472808834563 0 0)
(0.0004221366564340188 0 0)
(0.0005129775937074471 0 0)
(0.0006038446760209687 0 0)
(0.0006946127258574873 0 0)
(0.0007850988127164071 0 0)
(0.00087494415305389 0 0)
(0.0009636348470707534 0 0)
(0.001050460620424718 0 0)
(0.001134552214134517 0 0)
(0.001214857117283413 0 0)
(0.001290188694142131 0 0)
(0.001359218237496741 0 0)
(0.00142053233765798 0 0)
(0.001472640424532478 0 0)
(0.001514035008369111 0 0)
(0.00154321279747201 0 0)
(0.001558731574727897 0 0)
(0.001559244698843525 0 0)
(0.001543569035611693 0 0)
(0.001510803480040733 0 0)
(0.001460605482548569 0 0)
(0.001393849153715356 0 0)
(0.001313690160145023 0 0)
(0.001225852382872012 0 0)
(0.001135701147254576 0 0)
(0.001045347612785654 0 0)
(0.0009550401386563619 0 0)
(0.0008649202328207077 0 0)
(0.0007752611577239708 0 0)
(0.0006865116162622512 0 0)
(0.0005992914273832623 0 0)
(0.0005144177876807926 0 0)
(0.0004328731407489425 0 0)
(0.0003558343025000607 0 0)
(0.0002846116012031653 0 0)
(0.0002206823775216865 0 0)
(0.0001655983910289384 0 0)
(0.0001210218950997737 0 0)
(8.860437362463281e-05 0 0)
(7.002677870570248e-05 0 0)
(6.684023788477838e-05 0 0)
(8.048212903088719e-05 0 0)
(0.0001120028518496163 0 0)
(0.0001618335116244465 0 0)
(0.0002288791956799835 0 0)
(0.00030948777157383 0 0)
(0.0003973735784069952 0 0)
(0.0004872486473067952 0 0)
(0.0005772433326287298 0 0)
(0.0006672087763742272 0 0)
(0.0007569223699612302 0 0)
(0.000846182111946243 0 0)
(0.0009344276748877651 0 0)
(0.0010211279247577 0 0)
(0.001105367757700966 0 0)
(0.001186277779823983 0 0)
(0.001262617870022133 0 0)
(0.001333234970271164 0 0)
(0.001396644130242813 0 0)
(0.00145150978936918 0 0)
(0.00149622259270568 0 0)
(0.001529402591454723 0 0)
(0.001549467641885433 0 0)
(0.001555152935815025 0 0)
(0.001545082130247762 0 0)
(0.001518355485488834 0 0)
(0.001474267755377152 0 0)
(0.001413314040843951 0 0)
(0.001337657974430554 0 0)
(0.001252443358094108 0 0)
(0.001163460796234916 0 0)
(0.00107399755146836 0 0)
(0.0009844919667720471 0 0)
(0.000895167847794316 0 0)
(0.0008061476500049557 0 0)
(0.000717910091127883 0 0)
(0.0006309198031346786 0 0)
(0.0005460092850851695 0 0)
(0.0004640034704618838 0 0)
(0.0003860926714209524 0 0)
(0.0003134375593716687 0 0)
(0.0002475379240723897 0 0)
(0.0001898164270311011 0 0)
(0.0001419820811080998 0 0)
(0.0001055931031549525 0 0)
(8.241383872763603e-05 0 0)
(7.395227473192718e-05 0 0)
(8.179316042774344e-05 0 0)
(0.000107054293689163 0 0)
(0.0001505272491372667 0 0)
(0.000211640305137549 0 0)
(0.0002877783740885882 0 0)
(0.0003732171044267837 0 0)
(0.000461987652660441 0 0)
(0.0005511134795688167 0 0)
(0.0006402618109657369 0 0)
(0.0007292077533445082 0 0)
(0.0008178260675936687 0 0)
(0.0009055974575690333 0 0)
(0.0009920697324239842 0 0)
(0.001076378856509758 0 0)
(0.001157732536953112 0 0)
(0.001234942432062649 0 0)
(0.001306922807835369 0 0)
(0.001372231128295246 0 0)
(0.001429577914534799 0 0)
(0.001477375799803438 0 0)
(0.001514259573398252 0 0)
(0.001538638477493098 0 0)
(0.001549220960873614 0 0)
(0.001544580071924555 0 0)
(0.001523719569775549 0 0)
(0.001485749895127992 0 0)
(0.001430756748253806 0 0)
(0.001360139789629006 0 0)
(0.001278144257812207 0 0)
(0.001190666636392751 0 0)
(0.001102083297232577 0 0)
(0.001013403497091585 0 0)
(0.0009248538714528136 0 0)
(0.0008365249383366649 0 0)
(0.0007488147154880268 0 0)
(0.0006621513823323849 0 0)
(0.0005772723207874155 0 0)
(0.0004949633253317324 0 0)
(0.0004163156609849821 0 0)
(0.0003424548680404103 0 0)
(0.0002747870097970392 0 0)
(0.0002147148581148138 0 0)
(0.0001638727710772185 0 0)
(0.0001238284957762253 0 0)
(9.63056151038964e-05 0 0)
(8.286736672054051e-05 0 0)
(8.51147812518592e-05 0 0)
(0.0001043111594532538 0 0)
(0.0001414355385606346 0 0)
(0.0001964319328412225 0 0)
(0.0002675203648773523 0 0)
(0.0003498977736752171 0 0)
(0.0004372583495165594 0 0)
(0.0005255083593488667 0 0)
(0.0006138033209687014 0 0)
(0.0007019692579480117 0 0)
(0.0007898815877344272 0 0)
(0.000877131359248479 0 0)
(0.0009632751567507922 0 0)
(0.001047566157513885 0 0)
(0.001129222343939127 0 0)
(0.001207169735951444 0 0)
(0.001280325918843858 0 0)
(0.001347351118367938 0 0)
(0.001406944701884866 0 0)
(0.001457602383682547 0 0)
(0.001497923056543792 0 0)
(0.001526369124226338 0 0)
(0.001541581769609024 0 0)
(0.001542148981898776 0 0)
(0.001526949965009774 0 0)
(0.001495000329412052 0 0)
(0.001446024395226117 0 0)
(0.001380834304856684 0 0)
(0.001302685176971854 0 0)
(0.001217169756047244 0 0)
(0.001129549521004679 0 0)
(0.001041711177190541 0 0)
(0.0009539587442480131 0 0)
(0.000866356188522597 0 0)
(0.0007792397834565766 0 0)
(0.0006929784292212641 0 0)
(0.0006082421449170092 0 0)
(0.0005257503089688725 0 0)
(0.0004465247105297638 0 0)
(0.0003716275056341914 0 0)
(0.0003024017320538929 0 0)
(0.0002401981622096505 0 0)
(0.0001866044038673939 0 0)
(0.0001431611914753923 0 0)
(0.0001115748771073524 0 0)
(9.341783299064574e-05 0 0)
(9.031952668182592e-05 0 0)
(0.0001036279147663251 0 0)
(0.0001344878465010168 0 0)
(0.0001832218736486954 0 0)
(0.0002487921965410645 0 0)
(0.0003274150340248266 0 0)
(0.0004129789415423751 0 0)
(0.0005003117763212705 0 0)
(0.0005877924660073903 0 0)
(0.0006751715400401794 0 0)
(0.0007623927101788146 0 0)
(0.0008490602970320543 0 0)
(0.0009348373492903182 0 0)
(0.00101899160479116 0 0)
(0.001100851941564292 0 0)
(0.001179360069696394 0 0)
(0.001253538521257553 0 0)
(0.001322055356019358 0 0)
(0.001383698934823182 0 0)
(0.001436956120103202 0 0)
(0.001480491167452471 0 0)
(0.001512732325172746 0 0)
(0.001532353692844235 0 0)
(0.001537876189889412 0 0)
(0.001528165565208558 0 0)
(0.001502089038775121 0 0)
(0.001459171246780763 0 0)
(0.001399671486015895 0 0)
(0.001325990526476329 0 0)
(0.001242979065107763 0 0)
(0.001156507435388706 0 0)
(0.001069474011934753 0 0)
(0.0009825131209263579 0 0)
(0.0008956397893667609 0 0)
(0.0008091447373380064 0 0)
(0.0007233425019402217 0 0)
(0.000638832449125306 0 0)
(0.0005562752980737477 0 0)
(0.0004766170554030392 0 0)
(0.0004008612937221114 0 0)
(0.0003302791676564155 0 0)
(0.000266173284371462 0 0)
(0.0002100743049132441 0 0)
(0.0001634946566620565 0 0)
(0.0001281100750876863 0 0)
(0.0001055001177907433 0 0)
(9.730839200621259e-05 0 0)
(0.0001049502133605933 0 0)
(0.0001296920513012749 0 0)
(0.0001721558156762059 0 0)
(0.0002319078059673757 0 0)
(0.0003061524271109032 0 0)
(0.0003893736608609127 0 0)
(0.0004756280857791029 0 0)
(0.0005622740464519559 0 0)
(0.0006488592073776579 0 0)
(0.0007353267924143541 0 0)
(0.0008213862773517976 0 0)
(0.0009066991061226111 0 0)
(0.0009906556095288803 0 0)
(0.001072585944206566 0 0)
(0.001151553048879237 0 0)
(0.001226576744877592 0 0)
(0.001296437306099772 0 0)
(0.001359909919157586 0 0)
(0.001415576479342081 0 0)
(0.001462068740278166 0 0)
(0.001497886170145368 0 0)
(0.001521646278172738 0 0)
(0.001531908701766349 0 0)
(0.001527441559929662 0 0)
(0.00150708426982686 0 0)
(0.001470129444861712 0 0)
(0.001416489790386392 0 0)
(0.001347733418220375 0 0)
(0.001267875103462562 0 0)
(0.001182844050774814 0 0)
(0.001096674472218394 0 0)
(0.001010472395163349 0 0)
(0.0009243094892244262 0 0)
(0.0008384312969781271 0 0)
(0.0007531236692127483 0 0)
(0.0006689635056402393 0 0)
(0.0005865663396195 0 0)
(0.0005068236718047347 0 0)
(0.0004306277682365091 0 0)
(0.0003591123814893034 0 0)
(0.0002933936545003008 0 0)
(0.0002348643441063921 0 0)
(0.0001848479734590073 0 0)
(0.0001448751647472415 0 0)
(0.0001168015642340511 0 0)
(0.0001021310240763143 0 0)
(0.0001031006662138142 0 0)
(0.0001213768381418766 0 0)
(0.0001582319517699995 0 0)
(0.0002133051665685887 0 0)
(0.0002866631560360168 0 0)
(0.0003728225904446062 0 0)
(0.0004655049647926005 0 0)
(0.0005625743313142282 0 0)
(0.0006628024620962611 0 0)
(0.0007654997574693304 0 0)
(0.0008699036472212854 0 0)
(0.0009764713430583675 0 0)
(0.001083345778837933 0 0)
(0.001189581234409859 0 0)
(0.00129488432954834 0 0)
(0.001397890993901975 0 0)
(0.001496421049931638 0 0)
(0.001590773278866152 0 0)
(0.001678863419585923 0 0)
(0.001759160870119899 0 0)
(0.001829592065724008 0 0)
(0.001888140522674559 0 0)
(0.001932664115369051 0 0)
(0.00196073222345263 0 0)
(0.00196984745351752 0 0)
(0.001961264047050519 0 0)
(0.00192974760094034 0 0)
(0.001877826386810941 0 0)
(0.00181087535854796 0 0)
(0.001732517029114421 0 0)
(0.001646264560035492 0 0)
(0.001554109863039553 0 0)
(0.00145775886639587 0 0)
(0.001358013116420716 0 0)
(0.001255338329539849 0 0)
(0.001151092185082079 0 0)
(0.001044397623539966 0 0)
(0.0009379775159327629 0 0)
(0.0008335382474363104 0 0)
(0.0007273411334188217 0 0)
(0.000624281729991384 0 0)
(0.0005254544229943211 0 0)
(0.0004333947491958152 0 0)
(0.0003506145403742096 0 0)
(0.000279820404339259 0 0)
(0.0002242092008657235 0 0)
(0.0001859788195627597 0 0)
(0.000168605501174934 0 0)
(0.0001723251672564857 0 0)
(0.0001999239613143616 0 0)
(0.0002505345820341159 0 0)
(0.0003172041808285294 0 0)
(0.0003963989489712148 0 0)
(0.0004849206339193475 0 0)
(0.0005800542621651209 0 0)
(0.0006797992818589186 0 0)
(0.0007828039281990417 0 0)
(0.0008879449918629626 0 0)
(0.0009960263684724322 0 0)
(0.00110263276545152 0 0)
(0.001209170719754224 0 0)
(0.001311576850071164 0 0)
(0.001411779473263867 0 0)
(0.001508415782057167 0 0)
(0.001599412191944874 0 0)
(0.001683530184321075 0 0)
(0.001758800014339197 0 0)
(0.001823309553628639 0 0)
(0.001875147712096446 0 0)
(0.001912125226034815 0 0)
(0.00193091650079534 0 0)
(0.001929026901750205 0 0)
(0.001909437064905489 0 0)
(0.001869449787184608 0 0)
(0.001810887551566702 0 0)
(0.001740084797385017 0 0)
(0.00165925938679717 0 0)
(0.001571130356061315 0 0)
(0.001477595929372695 0 0)
(0.001380208894406143 0 0)
(0.001280175187256329 0 0)
(0.001178329820075401 0 0)
(0.001077018998898625 0 0)
(0.0009722195304733488 0 0)
(0.0008686237974349709 0 0)
(0.0007669665606802458 0 0)
(0.0006662637250039345 0 0)
(0.0005692191622359313 0 0)
(0.0004774766449261496 0 0)
(0.0003935361221649166 0 0)
(0.0003199427267525647 0 0)
(0.0002598675974376622 0 0)
(0.0002171903994898461 0 0)
(0.0001942052521615593 0 0)
(0.0001906334214629458 0 0)
(0.000210268168390636 0 0)
(0.0002533284044765211 0 0)
(0.0003156005922959934 0 0)
(0.0003915964041635988 0 0)
(0.0004786406747617382 0 0)
(0.0005738291597898348 0 0)
(0.0006745496790964225 0 0)
(0.00077902111646619 0 0)
(0.0008860761181912287 0 0)
(0.0009959282910891624 0 0)
(0.001106960980690338 0 0)
(0.001214020116201686 0 0)
(0.001317791320944112 0 0)
(0.001419340180944486 0 0)
(0.001519213265000807 0 0)
(0.001613130427651642 0 0)
(0.001700439937913488 0 0)
(0.001780105376919775 0 0)
(0.001849791091433137 0 0)
(0.001907722796994702 0 0)
(0.001952383196277943 0 0)
(0.001981453750529516 0 0)
(0.002008588489790677 0 0)
(0.001964069201739605 0 0)
)
;

boundaryField
{
    inlet
    {
        type            calculated;
        value           uniform (-3.643729411979281e-05 0 0);
    }
    outlet
    {
        type            calculated;
        value           uniform (0.001964069201739605 0 0);
    }
    frontAndBack
    {
        type            empty;
    }
}


// ************************************************************************* //
