/*--------------------------------*- C++ -*----------------------------------*\
| =========                 |                                                 |
| \\      /  F ield         | OpenFOAM: The Open Source CFD Toolbox           |
|  \\    /   O peration     | Version:  v2012                                 |
|   \\  /    A nd           | Website:  www.openfoam.com                      |
|    \\/     M anipulation  |                                                 |
\*---------------------------------------------------------------------------*/
FoamFile
{
    version     2.0;
    format      ascii;
    class       volVectorField;
    location    "0.002";
    object      U;
}
// * * * * * * * * * * * * * * * * * * * * * * * * * * * * * * * * * * * * * //

dimensions      [0 1 -1 0 0 0 0];


internalField   nonuniform List<vector> 
100
(
(2.31508e-13 0 0)
(2.84392e-13 0 0)
(7.90804e-14 0 0)
(-2.03206e-13 0 0)
(-2.18038e-13 0 0)
(4.57382e-14 0 0)
(2.7759e-13 0 0)
(1.3376e-13 0 0)
(-1.58694e-13 0 0)
(-2.53877e-14 0 0)
(-1.44057e-13 0 0)
(-3.84856e-13 0 0)
(-8.49194e-14 0 0)
(1.64413e-13 0 0)
(2.33153e-13 0 0)
(2.39295e-14 0 0)
(-3.39832e-13 0 0)
(-5.96443e-14 0 0)
(1.42112e-13 0 0)
(2.10769e-13 0 0)
(1.80037e-14 0 0)
(-3.25304e-13 0 0)
(-5.20679e-14 0 0)
(2.0194e-13 0 0)
(3.27389e-13 0 0)
(8.18673e-14 0 0)
(-2.18343e-13 0 0)
(-1.4522e-13 0 0)
(1.90883e-13 0 0)
(8.98587e-13 0 0)
(1.54884e-12 0 0)
(5.94169e-13 0 0)
(-1.9486e-13 0 0)
(-5.52294e-13 0 0)
(-5.35914e-13 0 0)
(5.53692e-13 0 0)
(3.15106e-11 0 0)
(3.51518e-07 0 0)
(0.000371889 0 0)
(0.048904 0 0)
(1.18075 0 0)
(8.2157 0 0)
(25.8296 0 0)
(52.0165 0 0)
(82.7239 0 0)
(115.685 0 0)
(149.961 0 0)
(185.442 0 0)
(221.835 0 0)
(259.289 0 0)
(288.564 0 0)
(300.096 0 0)
(291.957 0 0)
(292.686 0 0)
(293.899 0 0)
(294.906 0 0)
(294.878 0 0)
(299.695 0 0)
(302.997 0 0)
(293.486 0 0)
(247.898 0 0)
(114.024 0 0)
(9.38871 0 0)
(0.0664739 0 0)
(3.0176e-05 0 0)
(9.36065e-10 0 0)
(5.91372e-13 0 0)
(-1.08485e-13 0 0)
(1.83623e-13 0 0)
(4.50222e-13 0 0)
(5.79704e-14 0 0)
(1.87207e-13 0 0)
(5.2082e-14 0 0)
(-6.04181e-13 0 0)
(-3.35979e-13 0 0)
(3.93799e-13 0 0)
(6.7617e-13 0 0)
(-1.16122e-13 0 0)
(-9.802e-13 0 0)
(-1.30137e-13 0 0)
(5.36865e-13 0 0)
(7.08875e-13 0 0)
(-1.11834e-13 0 0)
(-9.92047e-13 0 0)
(-1.39325e-13 0 0)
(5.35161e-13 0 0)
(7.28195e-13 0 0)
(-4.21896e-14 0 0)
(-8.23113e-13 0 0)
(-1.41138e-14 0 0)
(2.46678e-13 0 0)
(-3.9623e-13 0 0)
(-9.65761e-13 0 0)
(3.76267e-13 0 0)
(1.2961e-12 0 0)
(3.00942e-13 0 0)
(-7.3093e-13 0 0)
(-1.06874e-12 0 0)
(6.52716e-13 0 0)
(2.06897e-12 0 0)
)
;

boundaryField
{
    sides
    {
        type            zeroGradient;
    }
    empty
    {
        type            empty;
    }
}


// ************************************************************************* //
