/*--------------------------------*- C++ -*----------------------------------*\
| =========                 |                                                 |
| \\      /  F ield         | OpenFOAM: The Open Source CFD Toolbox           |
|  \\    /   O peration     | Version:  v2012                                 |
|   \\  /    A nd           | Website:  www.openfoam.com                      |
|    \\/     M anipulation  |                                                 |
\*---------------------------------------------------------------------------*/
FoamFile
{
    version     2.0;
    format      ascii;
    class       volScalarField;
    location    "0.019";
    object      p;
}
// * * * * * * * * * * * * * * * * * * * * * * * * * * * * * * * * * * * * * //

dimensions      [1 -1 -2 0 0 0 0];


internalField   nonuniform List<scalar> 
1000
(
101310.8089232587
101313.2801830276
101306.2995464297
101300.6776325135
101294.496926818
101289.0015672369
101284.2903304642
101280.2386684628
101276.7876005322
101274.4484262083
101273.6624302381
101273.6996803116
101274.1712299255
101275.3643345606
101277.5581549274
101280.7984104132
101284.962178963
101289.8697466698
101295.3676661181
101301.3443942309
101307.7080456907
101314.3636326245
101321.2043104863
101328.1140488161
101334.9736477228
101341.6654397465
101348.0829953936
101354.1513352505
101359.8405015308
101365.13484465
101369.8836466004
101373.5356091565
101375.4011373333
101375.8093311509
101375.816837733
101375.50388728
101374.6736016308
101373.0864562842
101370.5484482114
101366.9675811944
101362.3853912932
101356.9569812222
101350.8921430516
101344.3927538458
101337.6183496887
101330.6874853943
101323.6989905155
101316.7513786066
101309.9468283197
101303.3757238579
101297.0920561171
101291.1150305933
101285.515012355
101280.6328737588
101277.2016819206
101275.6670152608
101275.3991608202
101275.470580058
101275.8183802721
101276.6316440181
101278.097582963
101280.3947450908
101283.6468324818
101287.8850432877
101293.0344096915
101298.9325505358
101305.3711333166
101312.1414774248
101319.066715974
101326.0132919831
101332.8863124568
101339.6195267954
101346.1717583016
101352.5260507246
101358.6605711821
101364.4643754641
101369.5688221528
101373.2013415766
101374.8253058739
101375.1665665262
101375.2082985918
101374.9704950164
101374.3429103988
101373.1432737916
101371.2010428639
101368.376148339
101364.5891048597
101359.8410998118
101354.2208576357
101347.8926580411
101341.0667571167
101333.9618589124
101326.7710923798
101319.6398676331
101312.6594881794
101305.8727091958
101299.2885358413
101292.9271719749
101286.9368157663
101281.7968076733
101278.3405238718
101276.8969479736
101276.6303272844
101276.6546221914
101276.933295215
101277.5916513381
101278.778100852
101280.6454045583
101283.3260519926
101286.905753513
101291.4031548843
101296.7608424904
101302.8496148561
101309.4863339672
101316.4626629518
101323.5786971946
101330.6727860328
101337.6381453029
101344.4248935495
101351.0273739873
101357.4310995479
101363.5022784067
101368.8363610528
101372.6434035766
101374.3583463712
101374.7503729129
101374.8394159576
101374.6697561029
101374.184085887
101373.2213996197
101371.6343455411
101369.2884356911
101366.0809346948
101361.9582811013
101356.930804821
101351.0796194623
101344.5510776729
101337.5381398546
101330.2509804185
101322.8828911736
101315.5829366479
101308.443955235
101301.5094080453
101294.8220286975
101288.5514286322
101283.1874258112
101279.5615002285
101278.0300382666
101277.7167114983
101277.685367389
101277.8970826539
101278.4308546229
101279.4198983368
101280.995527755
101283.282118529
101286.3762659088
101290.33078796
101295.1434541248
101300.7513866564
101307.0332949619
101313.821694356
101320.9257170657
101328.1608775714
101335.3758445554
101342.468142847
101349.3856985027
101356.0855462176
101362.4198657744
101367.9912110857
101372.0461197591
101373.9700893956
101374.4475477527
101374.5763224194
101374.4723213774
101374.1026868218
101373.3252446784
101372.0051493233
101370.0168803494
101367.2544987725
101363.6434801976
101359.1544830924
101353.8139212301
101347.7074252996
101340.9743266486
101333.7918366565
101326.3495047433
101318.8217666155
101311.3488022878
101304.0298683007
101296.955520307
101290.3303104479
101284.660902611
101280.7788464587
101279.0898046823
101278.7080774348
101278.6324767298
101278.7889559483
101279.2168938604
101280.0444901175
101281.389142207
101283.3665950368
101286.0751050938
101289.5821303877
101293.9143429508
101299.0504956236
101304.9183246373
101311.3978107741
101318.3331139084
101325.5533680189
101332.8963658963
101340.2269479431
101347.4477338208
101354.4765435635
101361.1415062789
101367.0333029534
101371.4178990261
101373.6275513341
101374.2204154749
101374.3722057476
101374.3279297626
101374.0517858159
101373.4249377815
101372.3209215248
101370.6217210665
101368.2227428241
101365.0401744779
101361.0228120472
101356.1626628229
101350.5010034365
101344.1289064425
101337.1806379263
101329.8180527747
101322.2096967644
101314.5132470374
101306.8652929171
101299.4005991997
101292.3614732035
101286.2841916255
101282.0298773317
101280.0937773924
101279.6267018134
101279.5175294269
101279.6206659701
101279.9603890403
101280.6527302419
101281.806032942
101283.5279374477
101285.9152967057
101289.0429689716
101292.95453645
101297.6555495035
101303.1090356082
101309.2345614029
101315.913307652
101323.0010895775
101330.3464101835
101337.80590544
101345.2560320565
101352.5856189077
101359.6055395184
101365.8872916855
101370.6900549891
101373.2815744425
101374.0387542183
101374.2028880081
101374.2149040327
101374.0157733584
101373.5140931474
101372.591790353
101371.1366095576
101369.0455170254
101366.2301642756
101362.6268385843
101358.2056531644
101352.9765989324
101346.9925490861
101340.3479857623
101333.1707120789
101325.6077300687
101317.8128198201
101309.9383925054
101302.1450076287
101294.6947364157
101288.1448946241
101283.4042754262
101281.0991612192
101280.4979585062
101280.3677332657
101280.4202298243
101280.6840335946
101281.2595184459
101282.2489043128
101283.753209596
101285.8663596308
101288.6663896931
101292.2070452151
101296.5117421885
101301.5689420551
101307.3293477087
101313.7069922649
101320.5865935514
101327.8364663271
101335.3204371497
101342.9058948016
101350.4637788979
101357.8018151794
101364.492364983
101369.7837627543
101372.8741859793
101373.8825869432
101374.0699709066
101374.1296022972
101373.9903062492
101373.5953695007
101372.8278773792
101371.5822641024
101369.7575149179
101367.2626794315
101364.0262057207
101360.0037060465
101355.1830083656
101349.5878499396
101343.2795011834
101336.3534012981
101328.9301365103
101321.1471954798
101313.1557120685
101305.1261740857
101297.3204415166
101290.2889836159
101284.9761136671
101282.165212827
101281.3423697193
101281.1996281079
101281.2003512579
101281.3987583045
101281.8712677168
101282.7151260486
101284.0269054967
101285.8986129507
101288.410023111
101291.6209618444
101295.5664468607
101300.2528897986
101305.654654431
101311.7128385383
101318.338879207
101325.423373031
101332.8447900161
101340.4736567671
101348.1744123005
101355.7631467396
101362.8406429666
101368.6563731502
101372.3377715572
101373.7135804142
101373.9615658135
101374.0503363172
101373.9642377018
101373.6621065306
101373.0306138956
101371.9684885128
101370.3776273714
101368.1658423887
101365.2562452896
101361.5946408734
101357.1533943696
101351.9345712584
101345.9727770675
101339.3350706563
101332.115936153
101324.432122701
101316.4236652061
101308.2595535216
101300.1863497699
101292.7128280003
101286.782859919
101283.3347052932
101282.1794461381
101281.9934553141
101281.9538257617
101282.0972174713
101282.4787234121
101283.1932007465
101284.3324237627
101285.9873504357
101288.2392995278
101291.1524734098
101294.7701254338
101299.1117213091
101304.1694802027
101309.9059748509
101316.2553017479
101323.128930396
101330.4223883722
101338.0168226729
101345.7777316616
101353.5332792704
101360.936249834
101367.2678520062
101371.6001772104
101373.4887900153
101373.8668817464
101373.9670398755
101373.9271599663
101373.702835474
101373.18972636
101372.2908510505
101370.9107708485
101368.9554674089
101366.3430055048
101363.0119335778
101358.9238222326
101354.0648405091
101348.448824725
101342.1193756828
101335.1477530653
101327.6296129466
101319.688329459
101311.4827398607
101303.2374985122
101295.3962625042
101288.8527559621
101284.6815578222
101283.0536173049
101282.758538377
101282.6970225421
101282.7943489269
101283.0952658109
101283.69413219
101284.6779931002
101286.1360470407
101288.1513199815
101290.7918734002
101294.1071587867
101298.1263284185
101302.8553998689
101308.2742184138
101314.3357641114
101320.9697572011
101328.0881974045
101335.5856593657
101343.3346314692
101351.1750211436
101358.8198219388
101365.6249001601
101370.6214245852
101373.1524118766
101373.7801853617
101373.8792886237
101373.8773469595
101373.7167890562
101373.3058679138
101372.5514285273
101371.3607356696
101369.6389142665
101367.2997044587
101364.2751753226
101360.5181043911
101356.002505775
101350.7262063889
101344.7138338977
101338.016890169
101330.7117272355
101322.9030340241
101314.7342556297
101306.40896966
101298.2998970162
101291.1992389802
101286.259427301
101284.011469726
101283.5085526547
101283.4319979313
101283.4902796534
101283.7227937063
101284.2192278331
101285.0625355349
101286.3396790876
101288.1358175671
101290.5232087084
101293.5564606062
101297.272086154
101301.6868215982
101306.7943759724
101312.5635023572
101318.9397893898
101325.8500439539
101333.2027508368
101340.8820489469
101348.7394773893
101356.5381974023
101363.7409439948
101369.3855211173
101372.6351490504
101373.6586439532
101373.7772217193
101373.8050988051
101373.6965013802
101373.3739974868
101372.7464189863
101371.7259864912
101370.2183222079
101368.132510516
101365.3936688238
101361.9470401531
101357.7574940671
101352.8105764385
101347.1156146955
101340.7074614937
101333.645494057
101326.0164882279
101317.9465438125
101309.6178630014
101301.3372909802
101293.7681999717
101288.0690638533
101285.0878197922
101284.2375978381
101284.1423243835
101284.1623110332
101284.3372813822
101284.7435418691
101285.4603542017
101286.5724119405
101288.1661572359
101290.3177652194
101293.0866275113
101296.5154363623
101300.6296583129
101305.4344511392
101310.9119003402
101317.0211086755
101323.7016085637
101330.8753123433
101338.4399628088
101346.2581829337
101354.1294071529
101361.6318439373
101367.8767106752
101371.8728003979
101373.4432859178
101373.6653783622
101373.697863759
101373.6256137107
101373.3763318885
101372.8584068344
101371.9900941887
101370.6778189221
101368.8266501106
101366.3553941221
101363.2023892811
101359.3245049205
101354.6971000027
101349.3168919795
101343.2048285718
101336.4062692123
101328.9921252112
101321.0699503405
101312.8009995669
101304.4412481423
101296.5233769084
101290.1133722327
101286.3059015326
101284.9612317411
101284.7785380523
101284.7785855064
101284.9062575174
101285.23753466
101285.8454784831
101286.8100794953
101288.218000389
101290.1494977055
101292.6691148988
101295.8250380602
101299.6498600115
101304.158376817
101309.3443522179
101315.1792245272
101321.614280516
101328.5830228539
101335.9956026441
101343.7283416658
101351.6079013812
101359.306119698
101366.0676112214
101370.8050787254
101373.0342017806
101373.4937565129
101373.512357803
101373.4688467294
101373.2761495094
101372.8493745907
101372.1108877909
101370.9714582457
101369.3348967744
101367.1139451698
101364.239151935
101360.6594115546
101356.3414615406
101351.2716882449
101345.459024128
101338.9361404166
101331.7600116419
101324.0209226724
101315.8592858959
101307.4920045908
101299.3371251784
101292.2992811253
101287.6225154175
101285.6366863413
101285.254534985
101285.2387487167
101285.328543314
101285.592285168
101286.1019109097
101286.9314972646
101288.1659725553
101289.8889230169
101292.1698211554
101295.0618913185
101298.6039584305
101302.8193147147
101307.7121861652
101313.2653372769
101319.4408011727
101326.1822897122
101333.4125807077
101341.0229837401
101348.8580915231
101356.6564389696
101363.8272418215
101369.2916207176
101372.2656727421
101373.1104378604
101373.1552133678
101373.1271437733
101372.9742048309
101372.6261434568
101372.0051393288
101371.0281102588
101369.5995817118
101367.6281557839
101365.038567589
101361.7736344973
101357.7931141118
101353.0749534419
101347.6182947887
101341.4456333274
101334.6033620969
101327.1670509166
101319.2580717886
101311.0664881362
101302.9266344311
101295.5634991095
101290.2129508111
101287.5923502829
101286.9090448479
101286.8674964551
101286.9324490239
101287.1439069566
101287.5725065075
101288.283022084
101289.3547149321
101290.8715931673
101292.9062033647
101295.5151220511
101298.7413600724
101302.614493746
101307.1474727488
101312.3335289715
101318.1454241471
101324.5374444474
101331.4451472138
101338.7746390641
101346.3883785929
101354.0766160768
101361.4047686501
101367.4254044672
101371.1144827921
101372.485903152
101372.6566317092
101372.6128467744
101372.4939508302
101372.2083033554
101371.6873748772
101370.8557404487
101369.6214502459
101367.8913383533
101365.5845701399
101362.6362391083
101358.9971912112
101354.6355544201
101349.5394020113
101343.7190653218
101337.2079009311
101330.0650546468
101322.3909292716
101314.3485395881
101306.2024876307
101298.5020457274
101292.3633749476
101288.8681764233
101287.6793529437
101287.5405118312
101287.5907430755
101287.7506238846
101288.1061871681
101288.713379495
101289.6458143986
101290.9875778546
101292.8158758991
101295.1922505977
101298.1642937654
101301.7671961735
101306.0213627934
101310.9290765904
101316.4729558792
101322.6169406931
101329.3066820262
101336.4619235637
101343.9628803372
101351.6304516315
101359.1269002461
101365.6872128259
101370.1737370492
101372.2198182745
101372.6091232399
101372.5810717779
101372.4802409933
101372.2361835626
101371.787811077
101371.0650124707
101369.983583434
101368.4488171692
101366.3738441826
101363.687020932
101360.3319785683
101356.2684507156
101351.4749789382
101345.9515503302
101339.721010765
101332.830686358
101325.3631266031
101317.4583048973
101309.3421530631
101301.4443576427
101294.6825998396
101290.3082449822
101288.5137713111
101288.1782373916
101288.2113554232
101288.3344608029
101288.6348174953
101289.1602141006
101289.9766344057
101291.1652908183
101292.8071192603
101294.9691236186
101297.7036774078
101301.0507928411
101305.036861676
101309.67170233
101314.9467017539
101320.8347097493
101327.290972251
101334.2491894379
101341.6063437021
101349.2024109832
101356.7676753878
101363.7275819822
101368.9889825575
101371.7638130575
101372.5481314358
101372.5871323137
101372.4869127695
101372.2737381409
101371.8792284137
101371.2442285374
101370.2924207519
101368.9312872969
101367.0708209851
101364.633044937
101361.5531596544
101357.7814823034
101353.2875106483
101348.0625181466
101342.1203908094
101335.498064792
101328.2616295357
101320.5281847232
101312.494111188
101304.498847815
101297.2560566585
101292.0189503709
101289.5064905135
101288.8411421846
101288.8166409127
101288.9225781279
101289.1726437836
101289.6321586428
101290.3511595223
101291.4046867025
101292.8751046691
101294.8346414744
101297.341582352
101300.4418521318
101304.1679390013
101308.5359814023
101313.5440033436
101319.1718807098
101325.3827120785
101332.1213128095
101339.301245552
101346.7862887762
101354.3585762846
101361.5762851983
101367.5094054988
101371.0843819428
101372.4327701802
101372.5937838643
101372.5096924088
101372.3265046074
101371.9720194179
101371.4008464174
101370.5511765249
101369.339413162
101367.673942565
101365.4702348562
101362.6551229236
101359.1693946444
101354.9724632517
101350.0462319361
101344.3964162753
101338.0519793377
101331.0668682255
101323.5371508847
101315.629511424
101307.6201749688
101300.0626684442
101294.0546500358
101290.6912589454
101289.5521265709
101289.4016498759
101289.4900170914
101289.6966428141
101290.1057704339
101290.7504875888
101291.6938125471
101293.0130328029
101294.783266981
101297.0698429008
101299.9276703415
101303.3983824801
101307.5058066331
101312.2537843062
101317.626666428
101323.5913928682
101330.0994191572
101337.0797062973
101344.4182280423
101351.9312474886
101359.2775895989
101365.7347040305
101370.1689706545
101372.1541567835
101372.597123104
101372.5723000993
101372.4109289808
101372.091300122
101371.5657856302
101370.7889452288
101369.6922562938
101368.1924120473
101366.2046948967
101363.6476502069
101360.4478907774
101356.5492863934
101351.9214110841
101346.5620943446
101340.4955905806
101333.770575775
101326.4679028156
101318.7265174575
101310.7761738426
101303.0449914134
101296.4188156938
101292.1301940076
101290.4011525357
101290.0365473658
101290.0402251643
101290.2109397427
101290.5691415235
101291.157999099
101292.0214215843
101293.2235382498
101294.832634823
101296.9139903957
101299.530356922
101302.7378887529
101306.5763874048
101311.0616839758
101316.1844405107
101321.9129285678
101328.1977840593
101334.9725541327
101342.1382909495
101349.5415931912
101356.9253495843
101363.7338259204
101368.9344626829
101371.6808789384
101372.5366913512
101372.6359487857
101372.5255296858
101372.2616987259
101371.7769879652
101371.0471298416
101370.0244947602
101368.6444590649
101366.8328073082
101364.5099986947
101361.5942324085
101358.0098756451
101353.7008887139
101348.6435382818
101342.852561722
101336.3776549702
101329.2979951846
101321.7385954716
101313.8979215777
101306.1041890569
101299.0471414418
101293.9168196301
101291.4301459138
101290.7350386615
101290.632856303
101290.7221755015
101291.0029416175
101291.526299013
101292.3290647355
101293.456414427
101294.9564851142
101296.8784212168
101299.2774705969
101302.217498573
101305.7617709123
101309.9554163296
101314.8106059489
101320.302590612
101326.3769982514
101332.9617770807
101339.9625401263
101347.2400221318
101354.5862606716
101361.5917127333
101367.3864456329
101370.973415036
101372.3365458377
101372.5896645617
101372.6101036121
101372.4459906447
101372.057335792
101371.3906477785
101370.4092640294
101369.0779688776
101367.3604633924
101365.2087540622
101362.55200218
101359.2988004883
101355.3555600746
101350.6525450101
101345.1668318065
101338.936635251
101332.0545236999
101324.6567723324
101316.9344461238
101309.1526847714
101301.8261950269
101296.0047765513
101292.6650474346
101291.5170495138
101291.3324853455
101291.328488101
101291.4921617074
101291.8793018644
101292.5532100863
101293.5817071865
101295.0190517685
101296.8909102321
101299.2011056479
101301.9558044388
101305.1884399221
101308.9753032465
101313.427562623
101318.634366015
101324.5755918752
101331.0700897862
101337.9606242772
101344.8890413812
101352.8416044351
)
;

boundaryField
{
    inlet
    {
        type            uniformFixedValue;
        uniformValue    sine;
        uniformValueCoeffs
        {
            frequency       constant 3000;
            scale           constant 50;
            level           constant 101325;
        }
        value           uniform 101323.6421297957;
    }
    outlet
    {
        type            pressureOutletNSCBC;
        pInf            101325;
        gamma           1.4;
        etaAc           1;
        fieldInf        1;
        lInf            2.25;
        value           uniform 101356.578106257;
    }
    frontAndBack
    {
        type            empty;
    }
}


// ************************************************************************* //
