/*--------------------------------*- C++ -*----------------------------------*\
| =========                 |                                                 |
| \\      /  F ield         | OpenFOAM: The Open Source CFD Toolbox           |
|  \\    /   O peration     | Version:  v2012                                 |
|   \\  /    A nd           | Website:  www.openfoam.com                      |
|    \\/     M anipulation  |                                                 |
\*---------------------------------------------------------------------------*/
FoamFile
{
    version     2.0;
    format      ascii;
    class       volScalarField;
    location    "0.019";
    object      pMean;
}
// * * * * * * * * * * * * * * * * * * * * * * * * * * * * * * * * * * * * * //

dimensions      [1 -1 -2 0 0 0 0];


internalField   nonuniform List<scalar> 
1000
(
101325.0501399562
101325.0040550857
101325.012777282
101325.0211392711
101325.0319321933
101325.0449725459
101325.0581133873
101325.0749917037
101325.0925405044
101325.1119423796
101325.1317136852
101325.1513836418
101325.1711411144
101325.190510245
101325.2094042604
101325.2273560915
101325.2440664804
101325.2592005325
101325.2724626034
101325.2837255239
101325.2927046448
101325.299495413
101325.303496056
101325.3051570228
101325.3041997162
101325.3008412185
101325.2950645253
101325.2870505064
101325.2768240464
101325.2646149838
101325.2504982097
101325.2348088567
101325.2180084593
101325.2007676534
101325.1838282946
101325.1667017058
101325.1497813754
101325.1332184076
101325.1173533118
101325.1024999042
101325.089112767
101325.0774601117
101325.0679142352
101325.0605928142
101325.0558873146
101325.0532851762
101325.0535390618
101325.0561955113
101325.0614801341
101325.0691991987
101325.079318976
101325.0916413424
101325.1060792489
101325.1224371502
101325.1403376421
101325.1591684217
101325.1781083113
101325.1975988951
101325.21668547
101325.2356409213
101325.2542439137
101325.2722609176
101325.2893196439
101325.3051701389
101325.3193179907
101325.3315768146
101325.3415581889
101325.3493411777
101325.3543061357
101325.3569674547
101325.3568673034
101325.3544516755
101325.3495208468
101325.3423158176
101325.3327721075
101325.3210376376
101325.3072411556
101325.2917572531
101325.2753230514
101325.2582402365
101325.2417756124
101325.2250405789
101325.2084034922
101325.1921272774
101325.1763187747
101325.161307694
101325.1474356091
101325.135050001
101325.1244981322
101325.1160983496
101325.1101514604
101325.1066733787
101325.105783104
101325.1074414378
101325.1118548178
101325.1187246649
101325.1281329687
101325.1399099313
101325.1539211712
101325.1700315273
101325.1876924481
101325.2063347072
101325.2248588022
101325.244109098
101325.262920983
101325.2815534265
101325.2999876176
101325.3179067652
101325.3350939215
101325.351241259
101325.3659983892
101325.379042812
101325.3900649527
101325.3988000096
101325.4052284062
101325.4087595178
101325.4097231653
101325.4082577244
101325.4041452368
101325.3976792817
101325.3888149515
101325.3776264724
101325.3643014467
101325.3491818031
101325.3330706907
101325.3162790093
101325.2999927689
101325.2836109334
101325.267174194
101325.2511174921
101325.2353990255
101325.2203841626
101325.2062316341
101325.1934202197
101325.1821297978
101325.1728612891
101325.1657149221
101325.1613541648
101325.1590416325
101325.1597207905
101325.1630916819
101325.1691030782
101325.1777452759
101325.1889480929
101325.2025030766
101325.2182605583
101325.2356487512
101325.2540353039
101325.2724715558
101325.2911516665
101325.3099595907
101325.3283813755
101325.3466463154
101325.3645061524
101325.3817523103
101325.3980750176
101325.4132483975
101325.42687944
101325.4387237272
101325.4483772601
101325.4560218019
101325.4605325935
101325.4627920706
101325.4623099686
101325.4592007371
101325.4535242583
101325.4453741826
101325.4348198016
101325.4219934889
101325.4073227079
101325.3914633212
101325.3751656787
101325.3586047331
101325.3427326473
101325.3265292216
101325.3106116357
101325.2950166555
101325.280013183
101325.2657283357
101325.252594612
101325.2407917799
101325.2307977521
101325.2227281565
101325.217325879
101325.2138311233
101325.2135110613
101325.2156611293
101325.2207699748
101325.2284887447
101325.2389971285
101325.2520358179
101325.267379692
101325.2845082859
101325.3026329759
101325.3211268599
101325.3391717626
101325.3580738472
101325.3763831942
101325.3944561056
101325.4122638005
101325.4295268764
101325.44602476
101325.461455826
101325.4755874847
101325.4880597885
101325.4985885582
101325.5070763092
101325.5129242761
101325.516287207
101325.516825304
101325.5148405637
101325.5100639795
101325.5027330695
101325.4929070801
101325.4806596647
101325.4664810263
101325.4509019784
101325.4349970918
101325.4183818456
101325.4028386825
101325.386877099
101325.3710388699
101325.3555611986
101325.3405881925
101325.3262722788
101325.3128722959
101325.3007170138
101325.2901151434
101325.2813619682
101325.2748070965
101325.2707659942
101325.2690390069
101325.270085875
101325.2741398652
101325.2808914526
101325.2905403052
101325.3029243274
101325.317787767
101325.3345970733
101325.3525191892
101325.3709182429
101325.3888033565
101325.4074772108
101325.4257822798
101325.4436884766
101325.4614436002
101325.4787129495
101325.4953563161
101325.5109851818
101325.5255204142
101325.5385013331
101325.5498137433
101325.5589549652
101325.56624233
101325.5703391819
101325.572136404
101325.5712136759
101325.5675316657
101325.56108422
101325.5520665356
101325.5405369198
101325.5268828334
101325.5116890758
101325.4959742037
101325.4797797362
101325.4639459474
101325.4484298139
101325.4327227361
101325.4173535354
101325.4024163448
101325.3880957834
101325.3745474083
101325.3620927667
101325.3510302051
101325.3416826526
101325.3342382367
101325.3294826692
101325.3264789114
101325.326611249
101325.3295094213
101325.3353011529
101325.3439693111
101325.3555542257
101325.369848239
101325.3862447738
101325.4039886353
101325.4221655226
101325.4403186732
101325.4581793395
101325.4767761605
101325.4946383855
101325.5123340741
101325.5295861158
101325.5463461174
101325.5622009722
101325.5770055562
101325.5904646175
101325.6023843226
101325.6122699014
101325.6204835741
101325.6255302575
101325.6285807716
101325.6286643801
101325.6261474797
101325.6206872219
101325.6125668399
101325.6018476168
101325.5888242468
101325.5741048744
101325.5585455116
101325.5429005452
101325.5266201869
101325.5115840346
101325.4960807844
101325.4807696931
101325.4658658726
101325.4515561806
101325.4379490449
101325.4252338529
101325.4138241849
101325.4039372169
101325.3958660547
101325.3901339604
101325.3864760439
101325.3855413483
101325.3872698117
101325.3920630443
101325.3997396807
101325.410395584
101325.4239633972
101325.4398842507
101325.4573765103
101325.4753791975
101325.4936728232
101325.5111023168
101325.5297859058
101325.5476875659
101325.5652665936
101325.582535613
101325.5993625734
101325.6154370094
101325.6304897715
101325.6443497449
101325.6567669595
101325.6674281358
101325.6761392941
101325.6827513496
101325.6864837373
101325.6876735473
101325.6862643746
101325.6819211187
101325.6747466448
101325.6648887217
101325.6526385449
101325.6384565767
101325.6231948755
101325.6077915696
101325.591735048
101325.5766017896
101325.5614638358
101325.5461827574
101325.5313778487
101325.5170186547
101325.5034121107
101325.4905392659
101325.4788142942
101325.4684864264
101325.4599314038
101325.4532235311
101325.4492528692
101325.4469610989
101325.4477954582
101325.4515111185
101325.4582242325
101325.4678751351
101325.4805721814
101325.4959066783
101325.513058048
101325.5309498381
101325.5490877847
101325.5668296553
101325.5847212155
101325.6029969019
101325.6205480245
101325.6378679834
101325.654703676
101325.6709912899
101325.6863190461
101325.7004804518
101325.7133596478
101325.7246683732
101325.7339849424
101325.7417092738
101325.7461329798
101325.7485760063
101325.748180653
101325.7450021713
101325.7388903635
101325.7299546004
101325.7185384361
101325.7050146357
101325.6901709388
101325.6748576443
101325.6594726221
101325.6436617035
101325.6290808368
101325.6139855881
101325.5992313825
101325.5848484377
101325.5712186512
101325.5582834924
101325.5462941543
101325.5355997531
101325.5265545039
101325.5192217742
101325.5144787669
101325.5113398182
101325.5113480602
101325.5139208824
101325.5196564606
101325.5283258886
101325.5400446334
101325.5546237
101325.5713542499
101325.5891098296
101325.6070700856
101325.6251432347
101325.6423499131
101325.6609035125
101325.6785509231
101325.6958196041
101325.7127201388
101325.7291111581
101325.7447366308
101325.7592131891
101325.7724730348
101325.7842991568
101325.7943749428
101325.8025961377
101325.8084590481
101325.8116950171
101325.8122994765
101325.8102554088
101325.8052753593
101325.7973428831
101325.7867937365
101325.7740382083
101325.7597331959
101325.7446024556
101325.7296212074
101325.7137502605
101325.6992868641
101325.6845181584
101325.6697479627
101325.6554444151
101325.6417089586
101325.628780105
101325.6166368431
101325.6056043776
101325.5961098227
101325.5883684771
101325.5825993771
101325.579399821
101325.5780515975
101325.5797259384
101325.5844480624
101325.5921382155
101325.6028834531
101325.616556603
101325.6327368907
101325.6502923137
101325.6681589179
101325.6861995812
101325.7036252919
101325.7215238635
101325.7395694614
101325.7568431521
101325.7738746463
101325.7903102899
101325.8062176264
101325.8210426979
101325.8346514948
101325.846920341
101325.8576989286
101325.8664210559
101325.8736179063
101325.8773796312
101325.879196242
101325.8781994147
101325.8743800516
101325.8675809276
101325.8579535778
101325.8460022106
101325.8323289444
101325.8175846592
101325.8026965685
101325.7875681503
101325.7723160462
101325.7581733383
101325.7435713557
101325.7293371276
101325.7155507076
101325.7025618664
101325.6903800062
101325.6790993341
101325.6692042831
101325.6610336322
101325.6546131869
101325.650865059
101325.6485203028
101325.6495034783
101325.6531275484
101325.65987287
101325.6696599437
101325.6823821135
101325.6978403796
101325.7150925003
101325.7329600703
101325.7507771058
101325.7686994302
101325.7857622714
101325.80423295
101325.8216404869
101325.8386878359
101325.8552550505
101325.8712923514
101325.8865283506
101325.90049108
101325.913199357
101325.9244978803
101325.9339889748
101325.9417313635
101325.9468307836
101325.9495196309
101325.9494858583
101325.9468306935
101325.9411688054
101325.9326161169
101325.9214581132
101325.9085326882
101325.8942868262
101325.8794838583
101325.8649739027
101325.8494840617
101325.8356022871
101325.8213062583
101325.8070673553
101325.793356644
101325.7802318126
101325.7680660261
101325.756632479
101325.7464443054
101325.7377767961
101325.7310043708
101325.7262383915
101325.7239586342
101325.7236195867
101325.7263539643
101325.7321554485
101325.7409618682
101325.7528008677
101325.7673652198
101325.7842250465
101325.8019194346
101325.8197094228
101325.8377623676
101325.8549459644
101325.8728540953
101325.8907272081
101325.907835887
101325.9246034979
101325.9407507209
101325.9563013564
101325.9707493725
101325.9838084537
101325.9956404882
101326.0058668299
101326.014088473
101326.0206487941
101326.0238014773
101326.0249758989
101326.0234127901
101326.0189340098
101326.0115651088
101326.0013318205
101325.989151914
101325.975485801
101325.9610945077
101325.9467316638
101325.9320464434
101325.9173605297
101325.9037865314
101325.8897321581
101325.8761232017
101325.8629768286
101325.8507152255
101325.8393948134
101325.8287885026
101325.8200537207
101325.8127558854
101325.8073544477
101325.8047105915
101325.8033697228
101325.8054902299
101325.8102849992
101325.8182278742
101325.8291680886
101325.8429749447
101325.8591378733
101325.8769155433
101325.8945877101
101325.91258196
101325.9304636821
101325.9475536891
101325.9660159013
101325.9833535146
101326.0002657168
101326.0166831842
101326.0324484044
101326.0475224259
101326.0608987009
101326.0736064054
101326.0842806194
101326.0933539392
101326.1006268549
101326.1051952614
101326.1073058858
101326.1068121201
101326.1036161294
101326.0974663761
101326.0884697767
101326.076968944
101326.0643322135
101326.0501183805
101326.0361621233
101326.0222328645
101326.0073937534
101325.9941791025
101325.9805334781
101325.9670104433
101325.9540354476
101325.9416990867
101325.93044363
101325.9197876932
101325.9107883139
101325.9031188088
101325.8973414171
101325.893700369
101325.892472691
101325.8931810111
101325.8970359489
101325.9039537457
101325.9137596267
101325.9265393589
101325.9415769091
101325.9587730591
101325.9759207043
101325.9935097716
101326.011171017
101326.0280578646
101326.0455098341
101326.0629919152
101326.0796232586
101326.0958981823
101326.1114655055
101326.1264520198
101326.1402363849
101326.1525735306
101326.1639786995
101326.1733262585
101326.1808575245
101326.1867475417
101326.1891044859
101326.1897292509
101326.1875782673
101326.1826125395
101326.1748216513
101326.1643425795
101326.1523415137
101326.1390084383
101326.1252337101
101326.1118783393
101326.0979179677
101326.0840194589
101326.0712530265
101326.0580389313
101326.0452497818
101326.0330222643
101326.0216556668
101326.0114215058
101326.0015595372
101325.9943755867
101325.9878360694
101325.9836133363
101325.9820480455
101325.9817381722
101325.9849130692
101325.9907350617
101325.9996394253
101326.0114120393
101326.0257746575
101326.0421153046
101326.0595746782
101326.0767112885
101326.0945426085
101326.1117846117
101326.128444905
101326.1464268922
101326.1632137094
101326.1795385591
101326.195346812
101326.2104399438
101326.2248825682
101326.237293046
101326.2496417477
101326.2594023626
101326.2676087284
101326.2741382711
101326.2778755658
101326.2792408671
101326.2780416745
101326.2742811026
101326.2675661715
101326.2582336382
101326.2465775481
101326.234202181
101326.2205608932
101326.2073567204
101326.1939989003
101326.1799804336
101326.1673038157
101326.154444816
101326.1416267839
101326.1294641752
101326.1179078239
101326.1076129581
101326.0976621297
101326.089993149
101326.0833349713
101326.0783145999
101326.0758578487
101326.0757888009
101326.0774874174
101326.0825238154
101326.0905514989
101326.1014250422
101326.1150781864
101326.1307034848
101326.1479781717
101326.1652248154
101326.1826090523
101326.2003895147
101326.2171514058
101326.2343662712
101326.2517772688
101326.268214749
101326.2842660491
101326.2995526841
101326.3142561502
101326.3275125829
101326.3396884998
101326.3505212764
101326.3592177786
101326.3661870442
101326.371647146
101326.3731556482
101326.373289708
101326.3704986133
101326.3650034979
101326.3567126509
101326.3459757133
101326.3338845812
101326.3209324043
101326.3076343096
101326.2950027469
101326.2814354072
101326.2679569939
101326.2558382135
101326.2431372473
101326.2309611194
101326.2193878419
101326.2087548894
101326.1992627696
101326.1902943413
101326.1839031756
101326.1786575639
101326.1750667747
101326.1748136906
101326.1755078313
101326.1798934704
101326.1868122643
101326.1969340673
101326.2096889821
101326.2248743473
101326.2414726456
101326.2588642919
101326.2761927913
101326.293823582
101326.3111787945
101326.327588123
101326.3455156046
101326.3621717761
101326.3782637641
101326.393860861
101326.4086438385
101326.4227299878
101326.434732451
101326.4465492279
101326.4562285772
101326.463190992
101326.4694242854
101326.4727129813
101326.4732810485
101326.4715025472
101326.4671798698
101326.4599699174
101326.4502918514
101326.4385957933
101326.4261912857
101326.4134093504
101326.4003760288
101326.3880556524
101326.3742632874
101326.3619145823
101326.3497712947
101326.3375303989
101326.3260221887
101326.3151789129
101326.3056328436
101326.2964562344
101326.2897865904
101326.2841531056
101326.2799873431
101326.2784645945
101326.2798962766
101326.282309044
101326.2886835699
101326.297802701
101326.3098003467
101326.3242903942
101326.3405151841
101326.3575500078
101326.3750842505
101326.3922826225
101326.4102201538
101326.4268655148
101326.4435595899
101326.4611481083
101326.4773969006
101326.4932142285
101326.5082759234
101326.5226063205
101326.5354815894
101326.5472294991
101326.557453602
101326.566027777
101326.5717709306
101326.5771029742
101326.5777933753
101326.5774905464
101326.5739493342
101326.5680117868
101326.5592731666
101326.5485376264
101326.5362652955
101326.5239169743
101326.5113215364
101326.4987967007
101326.4864321589
101326.4726661873
101326.4614845461
101326.4494108361
101326.437724815
101326.4269150479
101326.4169719682
101326.4082544317
101326.4001897188
101326.394654726
101326.3908298999
101326.3875640207
101326.3884177239
101326.3910552083
101326.3959863254
101326.4041902952
101326.4153563656
101326.4290753747
101326.4449530104
101326.461673256
101326.478993309
101326.4965769364
101326.5135817548
101326.5318452009
101326.547556358
101326.5648840711
101326.5818644635
101326.5977040705
101326.6131393659
101326.6276890524
101326.641273139
101326.6529820386
101326.6642704224
101326.6734203613
101326.680101193
101326.6850824605
101326.6888633835
101326.6878312566
101326.6859407919
101326.6808790834
101326.6732910824
101326.6633503857
101326.6519140614
101326.6393613427
101326.6273241303
101326.6149227928
101326.6029403899
101326.5905297595
101326.5771018861
101326.5663941525
101326.5548114384
101326.5438409181
101326.5339152614
101326.5248463966
101326.5168893011
101326.5105552415
101326.506008623
101326.5038487787
101326.50188603
101326.5050471412
101326.5087284336
101326.5164428368
101326.5264666088
101326.5394794636
101326.554668853
101326.5714640647
101326.5883371762
101326.6058756263
101326.623374805
101326.6403581593
101326.658590967
101326.6733730003
101326.6915866234
101326.7079388068
101326.7231435412
101326.7382608076
101326.7520944961
101326.7646535475
101326.7756149002
101326.7856927979
101326.7939457232
101326.7987913921
101326.8028346139
101326.8048605908
101326.8024231642
101326.7990310605
101326.7923390125
101326.7833469107
101326.772456072
101326.7607566292
101326.7482303055
101326.7364416164
101326.7243862224
101326.7126363671
101326.7008726845
101326.6872397626
101326.6771804464
101326.6662210715
101326.6561207989
101326.6471632881
101326.6386686196
101326.6320002052
101326.6271757601
101326.6240961967
101326.623469327
101326.6231424142
101326.6281743853
101326.6332568556
101326.6437930138
101326.6554922701
101326.6700846011
101326.6862972123
101326.7034791724
101326.7206054202
101326.7380675412
101326.7555375282
101326.7724259281
101326.7907218087
101326.8047551828
101326.82315185
101326.8391528015
101326.853526032
101326.8690242977
101326.880805269
101326.8930103591
101326.9032605653
101326.911631051
101326.919053424
101326.9221455946
101326.9248136327
101326.9251232852
101326.9262912875
)
;

boundaryField
{
    inlet
    {
        type            calculated;
        value           uniform 101324.9999999998;
    }
    outlet
    {
        type            calculated;
        value           uniform 101326.9193357413;
    }
    frontAndBack
    {
        type            empty;
    }
}


// ************************************************************************* //
