/*--------------------------------*- C++ -*----------------------------------*\
| =========                 |                                                 |
| \\      /  F ield         | OpenFOAM: The Open Source CFD Toolbox           |
|  \\    /   O peration     | Version:  v2012                                 |
|   \\  /    A nd           | Website:  www.openfoam.com                      |
|    \\/     M anipulation  |                                                 |
\*---------------------------------------------------------------------------*/
FoamFile
{
    version     2.0;
    format      ascii;
    class       volScalarField;
    location    "0.019";
    object      rho;
}
// * * * * * * * * * * * * * * * * * * * * * * * * * * * * * * * * * * * * * //

dimensions      [1 -3 0 0 0 0 0];


internalField   nonuniform List<scalar> 
1000
(
1.176302446956055
1.176326234952583
1.176271643996063
1.176225042820902
1.176170518115962
1.176121595527211
1.176080442097306
1.176045536506099
1.17601577868241
1.175995154747659
1.175987657441219
1.17598689483332
1.17598960178202
1.175998826530954
1.176016673588226
1.176043305843484
1.176077698694701
1.176118380846369
1.176164074439643
1.176213839443579
1.176266897776897
1.176322443258153
1.176379562277382
1.176437253580189
1.176494486983104
1.176550256142192
1.176603665526317
1.176654094006155
1.17670130040999
1.176745165562575
1.176784453180386
1.176814603302132
1.176829922111654
1.176833198347268
1.176833142122318
1.176830392790862
1.176823407702508
1.176810199011021
1.17678912866086
1.176759433555831
1.1767214584261
1.176676483622142
1.176626242043657
1.1765724022275
1.176516282568461
1.176458861667249
1.176400954202925
1.176343372802461
1.17628696266591
1.176232474107191
1.176180357806376
1.176130776715023
1.176084317691284
1.176043810434673
1.176015336951099
1.176002594447291
1.176000364541995
1.176000950746777
1.176003830894484
1.176010578454688
1.176022741929935
1.176041799120485
1.17606877534932
1.176103928654717
1.176146636349366
1.17619555105801
1.176248944693318
1.176305086625565
1.176362510367328
1.176420108838757
1.176477095727127
1.176532922254868
1.176587247475775
1.176639931132109
1.176690792396591
1.17673891151788
1.176781232190826
1.176811349364536
1.176824814122297
1.176827644166834
1.176827990935261
1.176826020276767
1.176820817682343
1.176810871927365
1.176794769278847
1.176771348377612
1.176739950061632
1.176700583978395
1.176653985498543
1.176601516419554
1.176544919789766
1.176486008800201
1.176426384699873
1.176367253170186
1.176309371321928
1.176253093745224
1.176198495188124
1.176145743275431
1.176096067077246
1.17605344187591
1.17602477914919
1.176012807554157
1.176010596431547
1.176010797863472
1.176013108834588
1.176018568537968
1.176028407714976
1.176043893145095
1.176066123453909
1.176095809263421
1.176133104967086
1.176177534165864
1.176228025141822
1.176283058954306
1.176340907800744
1.176399913924067
1.176458736890676
1.176516491304522
1.176572763642212
1.176627507088225
1.176680601615932
1.176730938052825
1.176775162486498
1.176806725962332
1.176820944118325
1.176824194289042
1.176824932505408
1.17682352588602
1.176819499313116
1.176811517922634
1.176798360016349
1.176778910506022
1.176752317496293
1.176718136713522
1.176676453538209
1.176627940184293
1.176573809783404
1.176515661971723
1.176455239225826
1.176394144168723
1.176333612818444
1.176274415051989
1.176216911348773
1.176161456182183
1.176109456215722
1.176064973633409
1.176034904197574
1.176022203835646
1.176019605407086
1.1760193454534
1.176021101181884
1.17602552772199
1.176033729809939
1.176046796384788
1.176065758811305
1.176091418019384
1.176124211836688
1.176164121525612
1.176210625383591
1.176262717317119
1.176319008220622
1.176377915181883
1.176437908327012
1.176497732807233
1.176556538964282
1.176613895098759
1.176669445065557
1.176721963392549
1.176768155071657
1.176801773619692
1.176817724780293
1.176821683237007
1.176822750853184
1.176821888587472
1.176818824022735
1.176812378435629
1.176801433824112
1.176784949468239
1.176762046946539
1.17673210822827
1.176694889824038
1.176650610457639
1.176599979801608
1.176544152792168
1.176484598511309
1.176422888448799
1.176360468896684
1.176298502212663
1.176237811498523
1.176179147771192
1.176124207444892
1.176077192411454
1.176044999026555
1.176030991901698
1.176027826230361
1.17602719925245
1.176028496899559
1.176032045743732
1.176038908934488
1.176050060008066
1.176066458771821
1.176088919959636
1.17611800284155
1.176153928399959
1.176196520189551
1.176245178680946
1.176298908347207
1.176356416677762
1.17641628665406
1.17647717316165
1.176537955460626
1.176597826143677
1.176656103898115
1.176711363835018
1.176760212508508
1.176796564515348
1.176814884222388
1.17681979947566
1.176821057906124
1.176820690800018
1.176818401332049
1.176813204275693
1.17680405112552
1.176789963393488
1.176770073837616
1.176743687456406
1.176710379539239
1.176670083580213
1.176623141525929
1.176570308177439
1.176512696495515
1.176451648262791
1.176388560840048
1.176324741577641
1.17626132307018
1.176199422879738
1.176141050475341
1.176090653303857
1.176055372975441
1.176039317065477
1.176035443607855
1.176034538222551
1.176035393499697
1.176038210768894
1.176043952281311
1.176053516493771
1.176067796012195
1.176087593950726
1.176113530976259
1.176145968335935
1.176184951838932
1.176230174631224
1.176280969448209
1.176336350739009
1.176395122675398
1.176456028880762
1.1765178805112
1.176579653161564
1.176640425092394
1.176698628308056
1.176750710287992
1.176790529362709
1.176812015078805
1.176818292634803
1.176819653402653
1.176819752997637
1.176818102023122
1.176813942700225
1.176806296096619
1.176794231494502
1.176776894602996
1.176753552838831
1.176723677815364
1.176687021537167
1.176643666585319
1.176594051051838
1.176538958018063
1.176479446879173
1.176416736290037
1.176352101201531
1.176286805318678
1.176222180025674
1.176160398620912
1.176106082969487
1.176066769981005
1.176047653940589
1.176042668191525
1.176041588221706
1.176042023545818
1.176044211216879
1.176048983639882
1.176057188495135
1.17606966348099
1.176087187447814
1.176110407430971
1.176139768986247
1.176175466105932
1.176217402873993
1.176265170234336
1.176318055050529
1.176375101127994
1.176435216316783
1.176497271330944
1.176560166509888
1.176622831725417
1.176683672828843
1.176739144406839
1.176783014834168
1.176808636907987
1.176816997292565
1.176818550818421
1.176819045182016
1.17681789029012
1.176814615948522
1.17680825284629
1.176797925734614
1.176782797075724
1.176762112735779
1.176735279361504
1.176701928761295
1.176661959790974
1.176615568991303
1.176563264076546
1.176505836074409
1.176444284560697
1.176379749331539
1.176313483420411
1.176246900457507
1.176182171907444
1.176123862774392
1.176079804465784
1.17605649409601
1.176049670330783
1.17604848657142
1.176048492544212
1.176050137883734
1.176054056335051
1.176061054336906
1.176071932722782
1.176087454445241
1.176108280981622
1.176134908333725
1.176167626728814
1.17620648912926
1.1762512827043
1.176301518751732
1.176356462624671
1.176415206901583
1.176476743667775
1.176539999219979
1.176603849467297
1.176666769547883
1.17672544962285
1.176773667433745
1.176804189247376
1.176815595739675
1.176817651700178
1.176818387653684
1.176817673811525
1.176815168898554
1.176809933338134
1.176801127493729
1.176787937978672
1.176769600414717
1.176745477228263
1.17671511894128
1.176678296235312
1.176635025990955
1.176585594849329
1.176530558519451
1.176470700121712
1.176406987435326
1.176340581394192
1.176272883128989
1.17620593716208
1.17614396263375
1.176094787185743
1.176066192300861
1.176056611884023
1.176055069468866
1.176054740806787
1.176055929914339
1.176059093679104
1.176065018733973
1.176074466127718
1.176088190122817
1.176106865015132
1.176131023118514
1.176161022978199
1.176197025832279
1.176238966936231
1.176286535677878
1.176339185304966
1.176396181456482
1.176456657622223
1.176519628112028
1.176583977562421
1.176648281156727
1.176709660127732
1.17676215524797
1.176798073894399
1.176813731952984
1.17681686659962
1.176817696971114
1.176817366321163
1.176815506486221
1.17681125241687
1.176803800048535
1.176792358092577
1.176776147010443
1.176754487404259
1.17672686965733
1.176692974978341
1.176652688473254
1.176606124599183
1.176553644571361
1.176495838931845
1.176433500530421
1.176367652100973
1.176299610521263
1.176231238564673
1.176166215277124
1.176111952306415
1.176077361537011
1.176063861291944
1.176061414231987
1.176060904075883
1.176061711173187
1.176064206619112
1.176069172920284
1.176077331911225
1.17608942327036
1.176106135462815
1.176128032821121
1.176155525309221
1.176188854513449
1.176228070133079
1.176273004801875
1.176323268360409
1.176378277776835
1.176437303104587
1.176499469956282
1.176563720879455
1.176628728370074
1.176692112788659
1.17674853378554
1.176789959364847
1.176810943254554
1.176816147961126
1.176816969590644
1.1768169534786
1.176815622317166
1.176812215463528
1.176805960582859
1.176796088808262
1.176781813510115
1.176762419452275
1.176737343318819
1.176706193438434
1.176668754163235
1.176625007233734
1.176575156565043
1.176519628877001
1.176459056939849
1.176394308517533
1.176326572801967
1.176257537720535
1.176190293980429
1.176131411186721
1.176090446716058
1.176071804847707
1.176067634230834
1.176066999365527
1.176067482674557
1.176069410863245
1.176073527702372
1.176080521100728
1.17609111219771
1.176106007157303
1.176125805124149
1.176150958841394
1.176181770953599
1.176218380064706
1.17626073378939
1.176308572772668
1.1763614455655
1.176418744989782
1.176479711973541
1.176543385628738
1.176608534845029
1.176673195865506
1.176732914285234
1.176779712999285
1.1768066550621
1.176815140613416
1.176816123704327
1.176816354816785
1.176815454451054
1.176812780642845
1.1768075775377
1.176799117362064
1.176786617618915
1.176769324486416
1.176746617031312
1.176718041134728
1.176683305353047
1.176642289624071
1.176595071020897
1.176541938224599
1.176483383250733
1.176420125309721
1.176353209727032
1.176284147121493
1.176215481842142
1.17615271502094
1.176105453977587
1.176080731217388
1.176073680481907
1.176072890390338
1.176073056127726
1.176074507115171
1.176077876153464
1.176083820539418
1.17609304260352
1.176106259158441
1.176124101847114
1.17614706309644
1.176175496811667
1.176209614011534
1.176249457265981
1.176294877789667
1.176345536200359
1.176400930835479
1.176460413946015
1.176523137414326
1.176587961990616
1.176653224610955
1.17671542817357
1.176767204100468
1.176800335048261
1.176813355594357
1.176815196903432
1.176815466224741
1.176814867208154
1.176812800464225
1.176808506467665
1.176801307485248
1.176790427683705
1.176775079963595
1.1767545910841
1.17672844969924
1.176696298056205
1.176657931652632
1.176613323027284
1.176562645581886
1.176506275104582
1.176444799249897
1.176379109533248
1.176310542829157
1.176241221581316
1.176175563030698
1.176122407344762
1.176090833027858
1.176079681964853
1.176078166918641
1.176078167306808
1.176079226057508
1.1760819732675
1.17608701481973
1.176095014047547
1.176106689599438
1.176122706975016
1.176143601337635
1.17616977216724
1.176201489595329
1.176238876134358
1.176281879853566
1.17633026366849
1.17638362338483
1.176441407350094
1.176502870312656
1.176566986574265
1.176632318770581
1.176696146011385
1.176752205572438
1.17679148332493
1.176809964529535
1.176813774588196
1.176813928803233
1.176813568056009
1.176811970441614
1.176808432147511
1.176802309521432
1.176792862753262
1.176779294322034
1.176760880720942
1.176737046036811
1.176707366416813
1.176671565897492
1.176629531379486
1.176581336657066
1.176527252321558
1.176467750464598
1.176403579392475
1.176335903116104
1.176266520023507
1.176198896646545
1.176140534933007
1.176101751979249
1.176085283969211
1.176082114866254
1.176081983951315
1.176082728594432
1.176084915745162
1.176089141960058
1.176096021534532
1.176106258740667
1.176120546700188
1.176139461464723
1.176163444310216
1.176192817065364
1.176227772714205
1.176268346098611
1.176314394065129
1.176365601534004
1.176421501502756
1.176481453403392
1.176544555783893
1.176609519913186
1.176674177830432
1.176733631395456
1.176778936116082
1.176803593455416
1.176810597216673
1.176810968438987
1.176810735716016
1.176809467727479
1.176806582024336
1.176801433414488
1.176793333070546
1.176781489405571
1.176765144604811
1.176743674574621
1.17671660509776
1.176683602362529
1.176644483320666
1.17659924061515
1.176548060481021
1.176491327282785
1.176429667311793
1.176364086679306
1.176296161172468
1.176228663071337
1.176167604441291
1.176123234379175
1.176101502500672
1.176095836019476
1.17609549146781
1.17609603010077
1.17609778366448
1.176101337929636
1.176107230050762
1.176116117307342
1.176128696326202
1.176145568662297
1.176167203405192
1.176193957114237
1.176226074905291
1.176263663982486
1.176306668011844
1.176354860893856
1.176407863318775
1.176465140686056
1.176525914225825
1.176589043316763
1.176652788735337
1.176713547314105
1.176763464206579
1.176794049831402
1.176805420003963
1.176806835477676
1.176806472465556
1.176805486721348
1.176803118475344
1.176798799565203
1.17679190465189
1.176781671378169
1.176767327282527
1.176748202109413
1.176723757623456
1.176693586148756
1.176657423249502
1.176615169814708
1.17656691124231
1.176512923814935
1.176453697639854
1.176390064936716
1.176323377163236
1.176255828282972
1.17619197309265
1.176141067782595
1.176112083256289
1.176102224671125
1.176101073298681
1.176101489853302
1.17610281570081
1.176105764289827
1.176110799569296
1.176118531987415
1.176129658822872
1.176144820279548
1.176164526637007
1.176189172457579
1.176219049431172
1.176254326600034
1.176295022697935
1.17634099336746
1.176391939353127
1.176447409746535
1.176506738839279
1.176568933211495
1.176632507715432
1.176694662063507
1.176749053693637
1.176786250966037
1.176803214645695
1.17680644229121
1.176806209723149
1.176805373755251
1.176803350323621
1.176799632958492
1.17679364038047
1.176784674454888
1.176771949954829
1.176754746604128
1.176732470327758
1.176704653650539
1.176670962557571
1.176631218926686
1.176585422403641
1.176533762132056
1.176476630216339
1.176414710828267
1.17634916433571
1.176281863983723
1.176216372810002
1.17616030091267
1.176124026020273
1.176109144994072
1.176106362505129
1.176106637145538
1.176107658025517
1.176110148799265
1.176114505763251
1.1761212760967
1.176131133253602
1.176144748376652
1.176162677049384
1.176185353500065
1.176213109415283
1.176246163497796
1.176284596982664
1.176328338236095
1.176377161890643
1.176430696599565
1.176488392370791
1.176549394792593
1.17661237685333
1.176675102181042
1.176732807187234
1.176776429056371
1.176799434714168
1.176805937335693
1.176806260685182
1.176805429788683
1.176803662403597
1.176800391605734
1.176795126951343
1.176787235695954
1.176775950769206
1.17676052589243
1.176740314497061
1.176714779228182
1.176683508018362
1.176646247780926
1.176602925930902
1.176553657334268
1.176498747952434
1.176438745470546
1.176374620568063
1.176308001403387
1.176241702565097
1.176181642158696
1.176138213042142
1.176117378053701
1.176111860517296
1.176111657337556
1.176112535847449
1.176114609570503
1.176118420191076
1.176124382645811
1.176133119208734
1.176145312875817
1.176161562562594
1.176182351533354
1.176208060519623
1.176238958793764
1.176275180013583
1.176316707594362
1.176363374439402
1.176414874320793
1.176470749409647
1.176530282759513
1.176592344688401
1.176655128670412
1.17671497150636
1.17676416278913
1.176793802411104
1.176804981629899
1.176806316561294
1.176805619379526
1.176804100610166
1.176801161648108
1.17679642616943
1.176789381721229
1.176779335203319
1.176765527027547
1.176747256309443
1.176723916335983
1.176695016051546
1.176660218777143
1.176619374254657
1.17657252962021
1.17651992473509
1.176462006604829
1.176399571503733
1.176334001308583
1.176267586354197
1.176204916701115
1.176155095058147
1.176127203705281
1.176117757244019
1.17611650938823
1.176117242194392
1.176118955682867
1.176122348454962
1.176127694892357
1.17613551757655
1.176146457406659
1.176161137277166
1.176180098865453
1.176203797425073
1.176232578077695
1.176266638254458
1.17630600962364
1.176350562206501
1.176400021633913
1.176453985138445
1.176511863446658
1.176572710890484
1.176635003881432
1.176695913627349
1.17674944961885
1.176786213624222
1.176802672436809
1.176806344977111
1.176806139178546
1.17680480129135
1.176802151320833
1.176797794392036
1.176791353763956
1.176782261315711
1.176769826338727
1.176753346404722
1.176732146106563
1.176705616883421
1.176673293205197
1.17663492260902
1.176590486859472
1.176540186785752
1.176484425691372
1.176423873685599
1.176359682616709
1.176293757421368
1.176229648129833
1.176174700800893
1.176139137036231
1.176124798692981
1.176121775138596
1.176121805639256
1.176123221324823
1.17612619177983
1.176131074984037
1.176138235053638
1.176148203774442
1.176161547385157
1.176178807170201
1.176200503429387
1.176227101717288
1.176258931945016
1.176296125214871
1.176338603889962
1.176386104648432
1.176438217927586
1.176494392477924
1.176553807644594
1.176615191337773
1.176676411697115
1.176732861169419
1.176775979246125
1.176798749328813
1.176805844692157
1.176806667615576
1.176805752158938
1.176803564799006
1.176799546169309
1.176793495066969
1.176785016593401
1.176773574943811
1.176758554771347
1.176739296551254
1.176715121985891
1.176685403871997
1.176649677402718
1.176607745576727
1.176559730321898
1.176506043398777
1.176447341015418
1.176384659475526
1.176319644233925
1.176255016814183
1.176196496951835
1.176153953569465
1.176133332524893
1.176127568237328
1.176126720874332
1.176127461572728
1.176129789878176
1.176134129907881
1.176140786965484
1.176150135662111
1.176162575154432
1.176178512936617
1.176198407094185
1.176222787144157
1.176252177595051
1.176286952513897
1.176327212633207
1.17637275250617
1.176423121039798
1.176477720551178
1.176535768188859
1.176596109046645
1.176657018725423
1.176715101666713
1.176763145538756
1.176792884516166
1.176804185866899
1.176806284341754
1.17680645371727
1.17680509300235
1.176801870728341
1.176796343456477
1.176788207235327
1.176777170120281
1.176762931160358
1.176745092385521
1.17672306632119
1.176696094829594
1.176663401563159
1.176624407885287
1.176578923285277
1.176527264127127
1.176470197357154
1.176408852356385
1.176344813150513
1.176280278652383
1.176219518092098
1.176171238830091
1.176143542356897
1.176134025564992
1.176132498647099
1.17613247595842
1.176133858064342
1.176137105759527
1.176142745858404
1.176151339919132
1.176163327862507
1.176178904564182
1.176198092444227
1.176220962609567
1.17624783152932
1.176279332353756
1.17631628667265
1.176359225226582
1.176407707291829
1.17646010813423
1.176515934825933
1.176574262660746
1.176644322454499
)
;

boundaryField
{
    inlet
    {
        type            calculated;
        value           uniform 1.176395950917642;
    }
    outlet
    {
        type            calculated;
        value           uniform 1.176676836389964;
    }
    frontAndBack
    {
        type            empty;
    }
}


// ************************************************************************* //
