/*--------------------------------*- C++ -*----------------------------------*\
| =========                 |                                                 |
| \\      /  F ield         | OpenFOAM: The Open Source CFD Toolbox           |
|  \\    /   O peration     | Version:  v2012                                 |
|   \\  /    A nd           | Website:  www.openfoam.com                      |
|    \\/     M anipulation  |                                                 |
\*---------------------------------------------------------------------------*/
FoamFile
{
    version     2.0;
    format      ascii;
    class       volScalarField;
    location    "0.019";
    object      T;
}
// * * * * * * * * * * * * * * * * * * * * * * * * * * * * * * * * * * * * * //

dimensions      [0 0 0 1 0 0 0];


internalField   nonuniform List<scalar> 
1000
(
299.98584721851
299.9870981842042
299.9803501145573
299.9755872818078
299.9711900975622
299.9673933528834
299.9639370011669
299.9608402999278
299.9582092309223
299.9565415176014
299.9561258464882
299.95643069177
299.9571368888121
299.9583177188359
299.9602631742128
299.9630670375051
299.9666264721055
299.9707843734081
299.9754121068308
299.9804189941708
299.985731286242
299.9912732347598
299.9969614075632
300.0027075579897
300.0084214694176
300.0140114203742
300.0193907369684
300.024495905434
300.0292998162744
300.0337866095405
300.0378254670212
300.0409473830821
300.0425631830482
300.0429360169717
300.0429725692707
300.0427472902308
300.042070782788
300.0407409184946
300.0386010852054
300.0355734622707
300.0316929655207
300.0270920889874
300.0219498376991
300.016438239986
300.0106933127645
300.0048164391018
299.9988924397751
299.9930057559786
299.9872434072108
299.981681719125
299.9763656902226
299.9713107012875
299.9665755295187
299.9624480666528
299.9595483132106
299.958253131005
299.9580285723206
299.9580905811088
299.9583860681157
299.9590737140578
299.9603130133307
299.9622558086116
299.9650068756307
299.9685926845398
299.972949887939
299.9779410921792
299.9833899503674
299.9891197836122
299.994980810066
300.0008598810935
300.0066765638769
300.0123746806486
300.0179193064758
300.0232960533789
300.0284864463097
300.0333966539037
300.0377148760481
300.0407876568568
300.0421612070865
300.0424497004243
300.0424848041554
300.04228340767
300.0417523737208
300.0407375176496
300.0390944924347
300.0367047675979
300.0335010484117
300.0294842593997
300.0247293702182
300.0193752794508
300.0135998070546
300.0075879538252
300.0015031163433
299.9954683435984
299.9895609199658
299.9838170560708
299.9782444021506
299.972860086158
299.9677895783385
299.9634386757436
299.960512923009
299.9592909203873
299.9590652289162
299.9590858068536
299.9593217267113
299.9598790486438
299.9608833996444
299.9624640829005
299.9647332263447
299.967763341868
299.9715701552257
299.976104998661
299.9812584390547
299.9868754031367
299.9927795140082
299.998801561436
300.0048047382731
300.0106986902859
300.0164412274274
300.0220275849964
300.0274455276223
300.0325818887748
300.0370944656664
300.0403150764179
300.0417658241267
300.0420974577949
300.0421727862824
300.0420292690667
300.0416184251012
300.0408040482246
300.0394614780886
300.0374769242362
300.0347634417861
300.0312756678414
300.0270222748795
300.0220718105588
300.0165480208798
300.0106141026379
300.0044478456086
299.9982127865516
299.9920350663151
299.9859932656721
299.9801241893773
299.9744640326894
299.9691563919569
299.9646159359934
299.9615466073373
299.9602502109968
299.9599849788021
299.9599584499269
299.9601376761909
299.9605895262256
299.9614267636725
299.9627605385108
299.964696116145
299.9673152318899
299.9706625486325
299.9747361179207
299.9794826480133
299.9847994065199
299.9905445758025
299.9965565710621
300.0026792374823
300.0087845052999
300.0147856695189
300.0206386863917
300.0263072263342
300.0316662570746
300.0363795889305
300.0398099043122
300.0414374844926
300.0418413916119
300.0419503319719
300.0418623590085
300.0415496765527
300.0408920079391
300.0397752754625
300.0380932808209
300.0357563776929
300.0327014801222
300.0289037098334
300.024385344506
300.0192187554854
300.0135217535453
300.0074442167304
300.0011464888954
299.9947761548431
299.9884518391425
299.9822575555691
299.9762699702998
299.9706622546116
299.9658633395032
299.9625772303211
299.9611474537228
299.9608243238101
299.9607603330994
299.9608928019071
299.9612550618899
299.9619556307194
299.9630938804973
299.9647677748109
299.9670604618464
299.9700290058794
299.9736959329557
299.9780431963725
299.9830095622955
299.9884933804676
299.994362696772
300.0004728622807
300.0066865820084
300.0128894749546
300.0189991489793
300.0249460889152
300.0305849120681
300.0355693840501
300.0392786254976
300.0411478859622
300.0416494219974
300.0417778329906
300.0417403847886
300.0415067916651
300.0409765189646
300.0400425813619
300.0386051330988
300.0365756722373
300.0338832640658
300.0304845448269
300.0263726928082
300.0215825587837
300.0161911206251
300.0103119086966
300.0040818139155
299.9976434132479
299.9911301142647
299.9846575057451
299.9783396571037
299.9723816878965
299.9672375909145
299.963636406236
299.9619975068388
299.961602133107
299.9615097244289
299.9615970373184
299.9618846228028
299.9624706960277
299.9634469659773
299.9649045392197
299.966925380845
299.969572826201
299.9728837233009
299.9768627155979
299.9814784451499
299.9866627663074
299.9923150505978
299.9983132160302
300.0045290130466
300.0108410985173
300.0171449251239
300.0233464353038
300.029285637946
300.0346000626118
300.0386630875046
300.0408553961387
300.0414959348765
300.0416347879299
300.0416449595678
300.0414765156837
300.0410521282284
300.0402719119958
300.0390408974162
300.037271906845
300.0348901747807
300.0318417635347
300.0281013374887
300.0236772855303
300.0186142689781
300.012992153044
300.0069190046119
300.0005191525058
299.9939226842803
299.9872585561611
299.9806626493536
299.9743567953003
299.9688127814677
299.9647999942242
299.9628487401109
299.9623398298107
299.9622295996828
299.9622740446484
299.9624973627659
299.9629845145132
299.9638220260749
299.9650954010257
299.9668841300532
299.9692542431685
299.9722511979941
299.9758947674583
299.9801751273902
299.9850504883315
299.990448024504
299.9962701069018
300.0024052390336
300.0087381458865
300.0151565894662
300.0215513598607
300.0277597884839
300.0334201216265
300.0378965543975
300.0405109228928
300.041363979476
300.0415225018928
300.0415729527703
300.0414551229046
300.0411210348009
300.040471780841
300.0394180531459
300.037874385786
300.0357638174297
300.0330257855028
300.0296226943732
300.0255441897568
300.0208102871998
300.0154727522952
300.0096122625104
300.0033307826001
299.9967445965717
299.9899815586958
299.9831859312466
299.9765793460286
299.9706277737189
299.9661306509063
299.9637512727703
299.9630547463393
299.9629339205488
299.9629345388701
299.9631024973508
299.9635024783638
299.9642167988844
299.965327200248
299.9669115520323
299.9690373609381
299.9717552371201
299.9750947801847
299.9790613655765
299.9836332346732
299.9887604692438
299.9943680499176
300.0003633284661
300.0066434089465
300.0130986930673
300.0196144545188
300.026035085678
300.0320228593205
300.036942914221
300.040057238002
300.0412211022534
300.0414308893398
300.041505988951
300.0414331599481
300.0411775797486
300.0406433742331
300.0397448698207
300.0383990668494
300.0365279612607
300.0340664818062
300.0309687426555
300.0272113148524
300.0227958845058
300.0177516596322
300.0121353032443
300.0060266868593
299.9995245323768
299.9927472845444
299.9858379179892
299.9790050948765
299.9726794671541
299.9676600692474
299.9647412943582
299.9637633841668
299.9636059484606
299.9635724071576
299.9636937929325
299.9640167382527
299.9646215360351
299.9655858677374
299.9669867174915
299.9688929025311
299.971358742285
299.9744208130045
299.9780955451758
299.9823762977748
299.9872313309761
299.9926048022786
299.9984217235282
300.0045936249881
300.0110198828734
300.0175866524514
300.0241485256293
300.0304117502336
300.0357682884571
300.0394332971284
300.0410309693
300.0413508175006
300.0414355489085
300.0414018169123
300.0412120559611
300.0407779964088
300.0400175943189
300.0388501062886
300.0371959835067
300.034985889968
300.0321678069906
300.0287091797692
300.0245982515443
300.0198466625666
300.0144912292635
300.0085921691917
300.0022303479558
299.995510098568
299.9885657863651
299.9815875111132
299.9749507817429
299.9694121484486
299.9658813756872
299.9645033543312
299.9642535768555
299.9642015079173
299.9642838978987
299.9645386239734
299.9650455565978
299.9658783746074
299.9671125746348
299.9688184218602
299.9710535062532
299.9738596553802
299.9772615040913
299.9812640954008
299.9858503121467
299.9909802949995
299.9965944995646
300.0026183903826
300.0089626972144
300.0155194777636
300.0221532457331
300.0286211702293
300.0343783451016
300.0386052827247
300.0407463785951
300.0412774419349
300.0413612801585
300.0413596412456
300.041223822839
300.0408762088089
300.040237993064
300.0392307208706
300.0377741215494
300.0357952047101
300.033236475467
300.0300579460261
300.0262375822753
300.0217734847409
300.0166864199182
300.0110198876283
300.0048384149243
299.9982305143632
299.9913175116284
299.984271650154
299.9774083737711
299.9713982608925
299.9672169405828
299.9653141007065
299.9648883920727
299.9648235919779
299.9648729296591
299.9650697523686
299.9654899760674
299.9662038163374
299.9672848783953
299.9688052354954
299.9708260330048
299.9733934676061
299.9765384092942
299.9802749783567
299.98459779577
299.9894803541441
299.994876538724
300.0007243419585
300.0069462584175
300.0134441944759
300.0200924929588
300.026690751318
300.0327844481182
300.0375596743609
300.0403087216933
300.0411745429567
300.0412748548059
300.0412984395927
300.041206575503
300.0409337575952
300.0404028600239
300.0395396218865
300.0382641955986
300.0364996556685
300.0341826308618
300.0312667646528
300.0277222922183
300.0235369290575
300.0187185004078
300.0132964206418
300.0073208521418
300.0008651440831
299.9940359334485
299.9869873580905
299.9799790844453
299.9735726100892
299.9687486315975
299.9662251067995
299.9655054136102
299.9654247678814
299.9654416883433
299.9655898000334
299.96593369219
299.9665404554779
299.9674817757016
299.9688308140881
299.9706520347268
299.9729956870491
299.9758978759555
299.979380115937
299.9834467223615
299.9880824749028
299.9932526973035
299.9989061503135
300.0049766875769
300.0113777197755
300.0179929575965
300.0246526741749
300.0310000179688
300.0362831479123
300.0396636966343
300.0409922447427
300.0411801234349
300.0412076059864
300.0411464890261
300.0409356131937
300.0404974774505
300.0397629270582
300.0386527954254
300.0370867631765
300.0349961240631
300.0323286851158
300.0290479186697
300.0251329271717
300.0205808715864
300.015409404175
300.0096568267682
300.0033830616323
299.9966790446372
299.9896811740528
299.9826060438875
299.9759045020734
299.9704789090193
299.9672560470776
299.9661178211019
299.9659631757812
299.9659632173172
299.9660712909899
299.9663517105761
299.9668663183704
299.9676828198531
299.9688745645313
299.9705094737178
299.9726421609502
299.9753133854013
299.9785506979043
299.9823665760536
299.9867556872296
299.9916937973329
299.9971396149678
300.0030367999552
300.0093092578655
300.015852282166
300.0225191702902
300.0290322651665
300.0347525425221
300.0387603110314
300.0406460409489
300.041034798637
300.0410505352132
300.0410137292471
300.0408507203547
300.0404896928276
300.0398649693444
300.0389010596123
300.0375165822089
300.0356377039102
300.0332056461393
300.0301771396276
300.0265239981782
300.0222346469266
300.017316575798
300.0117973525872
300.0057251059966
299.999176154381
299.9922692482907
299.9851878985644
299.9782859019039
299.9723289970944
299.9683703632818
299.9666894240382
299.9663659431731
299.9663525811586
299.9664285913481
299.9666518433505
299.9670832272146
299.9677854430958
299.9688303737038
299.9702887609157
299.9722193934211
299.9746672987277
299.9776653070292
299.9812330915897
299.9853741787605
299.9900739230745
299.9953001289813
300.0010050951489
300.007123408744
300.0135630386658
300.020192443523
300.0267903792861
300.0328570440098
300.0374798217539
300.0399957453312
300.0407103714653
300.0407482493066
300.0407245051411
300.0405951290347
300.0403006889644
300.0397753503196
300.0389488252255
300.0377403387297
300.0360725585571
300.0338817922434
300.0311196344749
300.0277519998978
300.0237601798161
300.0191433866302
300.0139205824635
300.0081309451012
300.0018383411822
299.9951454043023
299.9882129206035
299.9813238164549
299.9750917350713
299.9705628752819
299.9683446579968
299.9677662651354
299.9677310960865
299.9677860769408
299.9679650698618
299.9683278640011
299.9689292852805
299.9698364199226
299.9711203682809
299.972842523506
299.9750507540518
299.977781437791
299.9810595723238
299.9848960733118
299.9892851597435
299.9942037202063
299.9996130050098
300.0054584165506
300.0116604424567
300.0181026519324
300.0246075441781
300.0308074424537
300.035900884432
300.0390217238263
300.040181879298
300.0403263065384
300.0402892670216
300.0401886882782
300.0399470461146
300.0395063656646
300.0388028373554
300.0377586694879
300.0362950367099
300.0343435384891
300.031849240097
300.0287705225573
300.0250803759928
300.020768653424
300.0158440297604
300.0103346548754
300.0042904977376
299.9977964429669
299.9909903757268
299.9840961866848
299.9775787585983
299.9723829056385
299.9694244175251
299.9684181289276
299.9683006050779
299.9683431239217
299.968478457373
299.9687794278585
299.9692933891399
299.9700826474769
299.9712183704323
299.9727658971641
299.9747773018223
299.9772928430073
299.9803422742264
299.9839428252297
299.9880963792156
299.9927881694379
299.9979876173786
300.0036486664288
300.0097033406617
300.0160502271615
300.0225377459389
300.0288801364827
300.0344302252913
300.0382257145467
300.0399566080246
300.0402859394861
300.04026220931
300.0401769122032
300.0399704530556
300.0395911522629
300.0389796960313
300.0380648461533
300.036766475743
300.0350110818652
300.0327380341912
300.0298996146422
300.02646171664
300.0224061339085
300.0177327933886
300.0124609541352
300.0066305841738
300.0003114579729
299.9936219543031
299.9867532226001
299.98006890609
299.9743457740555
299.970643180251
299.9691242463623
299.9688402311065
299.9688682637095
299.9689724669259
299.9692267057259
299.9696714290391
299.9703624853515
299.9713686108631
299.9727583035405
299.9745882629734
299.9769027981412
299.9797357470744
299.9831094105902
299.987032053415
299.9914963331694
299.99647921375
300.0019427589168
300.0078308012475
300.014056110759
300.0204832393486
300.0268839615104
300.0327722039581
300.0372232714579
300.039570667907
300.0402341615383
300.0402671537902
300.0401823728152
300.0400020380139
300.0396683022034
300.0391311203979
300.0383259269886
300.0371744486532
300.0356005306959
300.033538188428
300.0309325757502
300.02774162438
300.0239394815075
300.0195187062142
300.0144909799882
300.0088874811062
300.0027640547161
299.9962197176094
299.9894205989465
299.9826539402908
299.976523788564
299.9720910041178
299.9699643504045
299.9694011649374
299.9693804251633
299.9694700953075
299.9696817635815
299.9700707196039
299.9706793139872
299.971571059343
299.9728156642565
299.9744742523383
299.9765961391264
299.9792201704114
299.9823738105781
299.9860706770929
299.9903090481811
299.9950718366611
300.0003277532894
300.0060300364287
300.0121054830501
300.0184387780782
300.0248455519499
300.0309520017097
300.0359714022386
300.0389957141286
300.0401363859615
300.040272594641
300.0402014571329
300.0400464893802
300.0397466124846
300.0392634262131
300.0385446393078
300.0375195267195
300.0361105768373
300.0342462644519
300.031864668616
300.0289156639008
300.0253648705693
300.0211969244947
300.016416598008
300.011048325604
300.0051376785064
299.9987658732138
299.9920738987581
299.9852954802221
299.9788990966659
299.9738138890268
299.9709670038122
299.9700027891814
299.9698754176961
299.9699502152447
299.9701251123101
299.9704714161728
299.9710171314428
299.9718155953839
299.9729322204682
299.9744305789708
299.9763659500913
299.9787847877553
299.9817223000824
299.9851986156436
299.9892169394138
299.9937639741102
299.9988116832281
300.0043189252627
300.0102255261223
300.0164349463553
300.0227916830248
300.0290070668278
300.0344698468716
300.0382211276622
300.0399005067104
300.0402752331073
300.0402542332514
300.0401177202191
300.039847329153
300.0394027676339
300.0387455921825
300.037817830725
300.036549000978
300.0348674218749
300.0327041653274
300.0299971184927
300.0266987564165
300.0227832883648
300.0182488180466
300.0131157984178
300.007425341704
300.0012457883889
299.9946946483437
299.987966305203
299.9814230727466
299.9758147642502
299.9721847842839
299.9707212550525
299.9704126367155
299.9704157493065
299.9705602490271
299.970863446033
299.9713618782192
299.9720927085178
299.9731102126194
299.9744721807756
299.976233853371
299.978448325305
299.9811630991495
299.9844118273679
299.9882078653796
299.992543259233
299.9973911007264
300.0027095556119
300.0084423307862
300.0145056435083
300.0207696517945
300.0270167953863
300.0327769218837
300.0371765867005
300.0394999474044
300.0402239219641
300.0403078880785
300.040214478321
300.0399912893927
300.0395812460561
300.0389638164485
300.0380987036713
300.0369312319684
300.0353986072019
300.033433524166
300.0309667573025
300.0279342880887
300.0242886610549
300.0200097401053
300.015109927489
300.0096311984783
300.0036404744639
299.9972434714926
299.9906080856325
299.9840120599567
299.9780391901598
299.9736968480512
299.9715920499864
299.9710036830055
299.9709171911024
299.9709927937238
299.9712304443225
299.9716734327997
299.9723529194474
299.9733071373082
299.9745768231606
299.9762035625901
299.9782341020911
299.9807224749792
299.9837221978694
299.9872714260857
299.9913804114573
299.9960281526517
300.0011685767298
300.0067406520078
300.0126644541818
300.018822099621
300.0250376048959
300.0309644798958
300.0358668205537
300.0389013026015
300.0400544720314
300.0402686171651
300.0402859279641
300.0401471199282
300.0398183423741
300.0392543289843
300.0384240550422
300.0372977121399
300.0358445755252
300.0340240341981
300.0317761628999
300.0290236500269
300.0256873434072
300.0217082547438
300.0170669732014
300.0117958071407
300.0059730753418
299.9997140907677
299.9931804881217
299.9865964949645
299.9803974585799
299.9754715950721
299.9726451582775
299.9716726532334
299.9715155107012
299.9715094596974
299.9716416696197
299.9719598513502
299.9725171031151
299.9733710408872
299.9745701333106
299.9761406651373
299.978088210497
299.9804128583912
299.9831328567744
299.9863125845972
299.990071611692
299.994538440422
299.9997657400933
300.0056313390196
300.011795293348
300.0174330354654
300.0231104417678
)
;

boundaryField
{
    inlet
    {
        type            fixedValue;
        value           uniform 300;
    }
    outlet
    {
        type            temperatureOutletNSCBC;
        pInf            101325;
        gamma           1.4;
        etaAc           1;
        fieldInf        1;
        lInf            2.25;
        value           uniform 300.0258806320302;
    }
    frontAndBack
    {
        type            empty;
    }
}


// ************************************************************************* //
