/*--------------------------------*- C++ -*----------------------------------*\
| =========                 |                                                 |
| \\      /  F ield         | OpenFOAM: The Open Source CFD Toolbox           |
|  \\    /   O peration     | Version:  v2012                                 |
|   \\  /    A nd           | Website:  www.openfoam.com                      |
|    \\/     M anipulation  |                                                 |
\*---------------------------------------------------------------------------*/
FoamFile
{
    version     2.0;
    format      ascii;
    class       volVectorField;
    location    "0.019";
    object      U;
}
// * * * * * * * * * * * * * * * * * * * * * * * * * * * * * * * * * * * * * //

dimensions      [0 1 -1 0 0 0 0];


internalField   nonuniform List<vector> 
1000
(
(-0.009962747766156452 0 0)
(-0.04157432978349807 0 0)
(-0.04939750126069711 0 0)
(-0.06469542653744563 0 0)
(-0.07873332852198857 0 0)
(-0.09157863461680472 0 0)
(-0.1024876359706994 0 0)
(-0.1118673165337173 0 0)
(-0.1198901371971763 0 0)
(-0.1254283483543795 0 0)
(-0.1272637479343712 0 0)
(-0.1272417397678093 0 0)
(-0.1264741915989588 0 0)
(-0.1240189522044535 0 0)
(-0.1192266036215349 0 0)
(-0.111938963077038 0 0)
(-0.102420656012826 0 0)
(-0.09107923738565812 0 0)
(-0.0782653220067023 0 0)
(-0.06423548339798858 0 0)
(-0.04920776449704509 0 0)
(-0.03341811800327203 0 0)
(-0.01714097181589019 0 0)
(-0.0006794471035170757 0 0)
(0.01565363167157707 0 0)
(0.03155140226953807 0 0)
(0.04674149002950814 0 0)
(0.06103697586080608 0 0)
(0.07436789936076782 0 0)
(0.08672280821811634 0 0)
(0.0977761873078775 0 0)
(0.1061532419713891 0 0)
(0.1102320832189561 0 0)
(0.1110190193003985 0 0)
(0.1107438631280888 0 0)
(0.1100295660645192 0 0)
(0.10818989839815 0 0)
(0.1046425160115425 0 0)
(0.09888300982030671 0 0)
(0.09065093698250673 0 0)
(0.08001659134374206 0 0)
(0.06733413670062391 0 0)
(0.05309871718150539 0 0)
(0.03779375319619333 0 0)
(0.02180658836385643 0 0)
(0.005430722479122932 0 0)
(-0.01108433370328504 0 0)
(-0.02748835426444027 0 0)
(-0.04352400804445462 0 0)
(-0.05896945274917768 0 0)
(-0.07369985946611994 0 0)
(-0.08767669703771133 0 0)
(-0.1007527669582372 0 0)
(-0.1121574143520067 0 0)
(-0.1200980112772574 0 0)
(-0.1234724656621938 0 0)
(-0.1239643283983918 0 0)
(-0.12382405010572 0 0)
(-0.1232050791387848 0 0)
(-0.1216275378091924 0 0)
(-0.1185816876881255 0 0)
(-0.1135951734329402 0 0)
(-0.1063246212294982 0 0)
(-0.09665680772495656 0 0)
(-0.08474370332644805 0 0)
(-0.07095860092685732 0 0)
(-0.05579642822445674 0 0)
(-0.03976348457968914 0 0)
(-0.02329883546272641 0 0)
(-0.0067444776721841 0 0)
(0.009646351356836433 0 0)
(0.02568875284956094 0 0)
(0.04126279211626376 0 0)
(0.05631448926747297 0 0)
(0.07078483682000961 0 0)
(0.08441716578281172 0 0)
(0.09633830004818386 0 0)
(0.1046431308068426 0 0)
(0.1081028754029779 0 0)
(0.1086689505934694 0 0)
(0.1083421516555875 0 0)
(0.107716133086177 0 0)
(0.1062732908565816 0 0)
(0.1036020402719155 0 0)
(0.09925536665874268 0 0)
(0.092854222412923 0 0)
(0.0841684707844168 0 0)
(0.07316985654797771 0 0)
(0.06005031045594322 0 0)
(0.04519367623958898 0 0)
(0.02910404878190744 0 0)
(0.01231391581734939 0 0)
(-0.004700057526252797 0 0)
(-0.02157332880998808 0 0)
(-0.03807251170918933 0 0)
(-0.05408623143547812 0 0)
(-0.06959069333912195 0 0)
(-0.0845379835131687 0 0)
(-0.09858615391547476 0 0)
(-0.1106067772251275 0 0)
(-0.1185489608409601 0 0)
(-0.121637435603884 0 0)
(-0.1220870369178491 0 0)
(-0.1218735409450413 0 0)
(-0.1213310559310832 0 0)
(-0.120037964635862 0 0)
(-0.1176122409407031 0 0)
(-0.1136455913109355 0 0)
(-0.1077717641543107 0 0)
(-0.09974003823149453 0 0)
(-0.08946711594045248 0 0)
(-0.07706157554205269 0 0)
(-0.06281586934498193 0 0)
(-0.04716478372521685 0 0)
(-0.03061603490287395 0 0)
(-0.01366716002097264 0 0)
(0.003269306691922413 0 0)
(0.01990892653630648 0 0)
(0.03610449818897969 0 0)
(0.05182015018539492 0 0)
(0.06700740144668969 0 0)
(0.08134418130078444 0 0)
(0.09384747979834095 0 0)
(0.1025796360696371 0 0)
(0.1062638854442209 0 0)
(0.1068850236164541 0 0)
(0.1065914374078728 0 0)
(0.1060233817893432 0 0)
(0.1048170691192665 0 0)
(0.1026307041219489 0 0)
(0.09908174953773057 0 0)
(0.09380993340484736 0 0)
(0.08652709006059423 0 0)
(0.07706623468844688 0 0)
(0.06542075181508475 0 0)
(0.05176319285657403 0 0)
(0.03643320473543249 0 0)
(0.01989287640976503 0 0)
(0.002654812858032694 0 0)
(-0.0148026184531614 0 0)
(-0.03210500862630929 0 0)
(-0.04901497798785129 0 0)
(-0.06541726964363408 0 0)
(-0.08120259007209446 0 0)
(-0.0959706253557589 0 0)
(-0.1085427070944531 0 0)
(-0.1168641516081615 0 0)
(-0.1201490207180707 0 0)
(-0.1206896497713737 0 0)
(-0.120431754727074 0 0)
(-0.1199636827787648 0 0)
(-0.1188635393253318 0 0)
(-0.1168339510393717 0 0)
(-0.113522455733233 0 0)
(-0.1085852787863843 0 0)
(-0.1017442916565129 0 0)
(-0.09282903197797367 0 0)
(-0.08180688076521653 0 0)
(-0.06879979978643251 0 0)
(-0.05408163528951703 0 0)
(-0.0380500555665045 0 0)
(-0.02117160996999051 0 0)
(-0.003908590567072336 0 0)
(0.01334867845895601 0 0)
(0.03032428373770793 0 0)
(0.04686429436169572 0 0)
(0.06284115088865794 0 0)
(0.07788306660176371 0 0)
(0.0910094298141044 0 0)
(0.1003810127003316 0 0)
(0.1045822835731475 0 0)
(0.1053462854416369 0 0)
(0.1051399520609918 0 0)
(0.1046076420804612 0 0)
(0.1035722501123415 0 0)
(0.1017265151111172 0 0)
(0.09873516425495495 0 0)
(0.09427152302187163 0 0)
(0.08804171737840905 0 0)
(0.07982429146241936 0 0)
(0.06951013654477099 0 0)
(0.0571312132836476 0 0)
(0.0428706831940109 0 0)
(0.02705103944254645 0 0)
(0.01009654719507904 0 0)
(-0.007529359888546037 0 0)
(-0.02539325656585307 0 0)
(-0.04314184818699217 0 0)
(-0.06052021474367633 0 0)
(-0.07729679217922056 0 0)
(-0.0929733463911304 0 0)
(-0.1063094939154669 0 0)
(-0.1152645229055492 0 0)
(-0.1189413967768323 0 0)
(-0.1195835050751266 0 0)
(-0.1193468286745083 0 0)
(-0.1189049778972545 0 0)
(-0.1179437428466567 0 0)
(-0.1162026353652715 0 0)
(-0.1133709853691035 0 0)
(-0.1091343514046547 0 0)
(-0.1032133496784026 0 0)
(-0.09540080416504025 0 0)
(-0.08558923444151753 0 0)
(-0.07379173743208181 0 0)
(-0.06015309700050146 0 0)
(-0.04494473735311839 0 0)
(-0.02853747979525099 0 0)
(-0.01135127873427776 0 0)
(0.006203721719055366 0 0)
(0.02377429788870313 0 0)
(0.04109347235332691 0 0)
(0.05793198806523676 0 0)
(0.07384777822197995 0 0)
(0.08781847190162827 0 0)
(0.0980504277971905 0 0)
(0.1029687319213026 0 0)
(0.1039734771650862 0 0)
(0.1038641707058409 0 0)
(0.1033547977706731 0 0)
(0.1024502226281359 0 0)
(0.100856034636513 0 0)
(0.09828283087572644 0 0)
(0.09443691517725163 0 0)
(0.08903533451832499 0 0)
(0.08183561471407723 0 0)
(0.07267298801797906 0 0)
(0.06149022220377844 0 0)
(0.04835470057797574 0 0)
(0.0334622081858544 0 0)
(0.01712301247753123 0 0)
(-0.0002752886726418931 0 0)
(-0.01831973286860848 0 0)
(-0.03661711312312974 0 0)
(-0.0548207968952221 0 0)
(-0.07258814977687686 0 0)
(-0.08931892751623739 0 0)
(-0.1036866931734781 0 0)
(-0.1135839848894006 0 0)
(-0.1178753820701549 0 0)
(-0.1186710123503798 0 0)
(-0.1185055729900309 0 0)
(-0.118076796548992 0 0)
(-0.1172172033407142 0 0)
(-0.1156883880946701 0 0)
(-0.1132187432882519 0 0)
(-0.1095261714594531 0 0)
(-0.1043409029699579 0 0)
(-0.0974398911209103 0 0)
(-0.08867325100075776 0 0)
(-0.07798401882021759 0 0)
(-0.06542309914444142 0 0)
(-0.05115555782127282 0 0)
(-0.03545109998044138 0 0)
(-0.01865359534132656 0 0)
(-0.001137068112431769 0 0)
(0.0167324157129667 0 0)
(0.03462688229246901 0 0)
(0.05224355121197109 0 0)
(0.06908834693701667 0 0)
(0.08408291482328109 0 0)
(0.09541084477146981 0 0)
(0.1013019434340343 0 0)
(0.1026876591953403 0 0)
(0.1026920581769012 0 0)
(0.102206814918451 0 0)
(0.1014180164333596 0 0)
(0.1000193925231752 0 0)
(0.09777120305024398 0 0)
(0.09441095014251666 0 0)
(0.08967414645486768 0 0)
(0.08331501934739372 0 0)
(0.07513939496975401 0 0)
(0.06503344134813176 0 0)
(0.05298235496598321 0 0)
(0.03908092287620493 0 0)
(0.02353337851286571 0 0)
(0.006634888813904945 0 0)
(-0.01126293988715965 0 0)
(-0.02978293362262292 0 0)
(-0.04854292032030092 0 0)
(-0.0671368603865071 0 0)
(-0.08490932756197456 0 0)
(-0.1004744866278435 0 0)
(-0.1116096532776839 0 0)
(-0.1168274167517647 0 0)
(-0.1179172005606619 0 0)
(-0.1178445699072371 0 0)
(-0.1174374052801459 0 0)
(-0.1166710829467626 0 0)
(-0.1153144055971848 0 0)
(-0.1131307318276135 0 0)
(-0.1098684082013885 0 0)
(-0.105275223145238 0 0)
(-0.09912773109870157 0 0)
(-0.09125516613700685 0 0)
(-0.08155631527382128 0 0)
(-0.0700146363392198 0 0)
(-0.0567104304146232 0 0)
(-0.04182262427893751 0 0)
(-0.0256131748125233 0 0)
(-0.008396517676250501 0 0)
(0.009488972659904617 0 0)
(0.02770100054530758 0 0)
(0.04589558199046494 0 0)
(0.06356583949634757 0 0)
(0.07963005120406046 0 0)
(0.092233272439502 0 0)
(0.09939423600925805 0 0)
(0.1014253338018255 0 0)
(0.1015529093542742 0 0)
(0.1011426121918739 0 0)
(0.1004485917842218 0 0)
(0.0992154662496413 0 0)
(0.09722566917451607 0 0)
(0.09425179995633917 0 0)
(0.09005494436005845 0 0)
(0.08439569390010059 0 0)
(0.07706503140520925 0 0)
(0.06791324570903641 0 0)
(0.05686847893440078 0 0)
(0.04394893678266691 0 0)
(0.02926969582459895 0 0)
(0.01303721810547306 0 0)
(-0.004470910366008247 0 0)
(-0.02292519270846726 0 0)
(-0.04195288674647909 0 0)
(-0.06112764159373596 0 0)
(-0.07979200003379387 0 0)
(-0.09657439089868743 0 0)
(-0.1091645540559731 0 0)
(-0.1156516469917503 0 0)
(-0.1172586432123969 0 0)
(-0.1173118907544945 0 0)
(-0.11694087317803 0 0)
(-0.1162734272372638 0 0)
(-0.1150679684829127 0 0)
(-0.1131245762953663 0 0)
(-0.1102179512960566 0 0)
(-0.1061145745701548 0 0)
(-0.100596830177673 0 0)
(-0.09348579887513343 0 0)
(-0.08465564846279668 0 0)
(-0.07404575105811734 0 0)
(-0.06167340248770822 0 0)
(-0.04764196167953595 0 0)
(-0.03213667054757704 0 0)
(-0.01540592487220811 0 0)
(0.002259053222167334 0 0)
(0.02053426865300222 0 0)
(0.03906736956642028 0 0)
(0.05737480472341483 0 0)
(0.07444272300114105 0 0)
(0.08840121321169574 0 0)
(0.09707369766122287 0 0)
(0.1000724644890489 0 0)
(0.1003833587662977 0 0)
(0.1000861241254055 0 0)
(0.09947969369209178 0 0)
(0.09840364963700933 0 0)
(0.0966442232376668 0 0)
(0.09399825862167931 0 0)
(0.09025186273742866 0 0)
(0.08517875146120246 0 0)
(0.07856837098278678 0 0)
(0.07025282424072554 0 0)
(0.06012309268512724 0 0)
(0.04814093349985775 0 0)
(0.034349565546842 0 0)
(0.01887723327716274 0 0)
(0.001928024476579297 0 0)
(-0.01622878864370153 0 0)
(-0.03525667474214898 0 0)
(-0.05473933871520067 0 0)
(-0.07405816077132769 0 0)
(-0.09194822596074201 0 0)
(-0.106092913583135 0 0)
(-0.1141593192570312 0 0)
(-0.116616704385157 0 0)
(-0.1168404727846922 0 0)
(-0.1165335681830447 0 0)
(-0.1159703485740678 0 0)
(-0.1149099760215402 0 0)
(-0.1131789009631467 0 0)
(-0.1105778588773548 0 0)
(-0.1068916554053552 0 0)
(-0.1019109715374427 0 0)
(-0.09545545691236437 0 0)
(-0.08738665578936869 0 0)
(-0.07761647464760925 0 0)
(-0.06611796927087854 0 0)
(-0.05293610727352902 0 0)
(-0.03819081207143545 0 0)
(-0.0220672485640912 0 0)
(-0.004802476466628456 0 0)
(0.01331692988147367 0 0)
(0.03195207560362343 0 0)
(0.05065973631721364 0 0)
(0.06855687236525321 0 0)
(0.08383629719324545 0 0)
(0.09417976722418089 0 0)
(0.09851910625308463 0 0)
(0.09917671825965446 0 0)
(0.0990047505515823 0 0)
(0.09849487492253317 0 0)
(0.09757833106611984 0 0)
(0.09603292341995245 0 0)
(0.09367443168255153 0 0)
(0.09031267392384704 0 0)
(0.0857397206463632 0 0)
(0.07975116679408664 0 0)
(0.07217051999993511 0 0)
(0.06286471943426411 0 0)
(0.05175597173887226 0 0)
(0.03883345951239178 0 0)
(0.02416141126810806 0 0)
(0.00787768003182417 0 0)
(-0.009810480431424703 0 0)
(-0.02861668971292209 0 0)
(-0.04815613496895944 0 0)
(-0.06787151848624343 0 0)
(-0.08666715094522162 0 0)
(-0.1023350504853738 0 0)
(-0.1122005911039382 0 0)
(-0.1158774945626015 0 0)
(-0.116388206159588 0 0)
(-0.1161752148681304 0 0)
(-0.1157122049359231 0 0)
(-0.1148048151048484 0 0)
(-0.1132792727822634 0 0)
(-0.1109561149439655 0 0)
(-0.107637756272849 0 0)
(-0.1031250053753569 0 0)
(-0.09724113763303385 0 0)
(-0.08984311571407944 0 0)
(-0.08082669146536157 0 0)
(-0.07013500723532863 0 0)
(-0.05776976835943209 0 0)
(-0.04379831814240989 0 0)
(-0.02835103245608461 0 0)
(-0.01161287758842186 0 0)
(0.0061758413345555 0 0)
(0.02470739267607441 0 0)
(0.04357841016292563 0 0)
(0.0620592626946123 0 0)
(0.07853081724735536 0 0)
(0.09058071636566696 0 0)
(0.09657799581029543 0 0)
(0.09787346762591806 0 0)
(0.09784116785685389 0 0)
(0.09743777958664498 0 0)
(0.0966804341381981 0 0)
(0.09533763885280684 0 0)
(0.09324205497475271 0 0)
(0.09022348826948333 0 0)
(0.0860900542295973 0 0)
(0.08064475456034326 0 0)
(0.07370981731204243 0 0)
(0.06514049774984372 0 0)
(0.05483386492087775 0 0)
(0.04273954006295473 0 0)
(0.02887086029497683 0 0)
(0.01330988555532071 0 0)
(-0.003793125845857002 0 0)
(-0.02220828789684753 0 0)
(-0.04159797819330898 0 0)
(-0.06146647242641726 0 0)
(-0.08089835700210957 0 0)
(-0.09792871972121123 0 0)
(-0.1097063919920727 0 0)
(-0.1149551293249489 0 0)
(-0.1159774259030366 0 0)
(-0.1158843042439852 0 0)
(-0.1155240599597193 0 0)
(-0.114772577059832 0 0)
(-0.1134491086308548 0 0)
(-0.1113873187415882 0 0)
(-0.1084059048370135 0 0)
(-0.1043142832614401 0 0)
(-0.09893875632844366 0 0)
(-0.09213552621385872 0 0)
(-0.08379303993858368 0 0)
(-0.073836671343688 0 0)
(-0.06223820403876035 0 0)
(-0.04902489422290952 0 0)
(-0.03428181505670254 0 0)
(-0.01814685235311705 0 0)
(-0.0008131606233347648 0 0)
(0.01745215074019624 0 0)
(0.0362871135103723 0 0)
(0.05509999298384106 0 0)
(0.07254621963284877 0 0)
(0.0862323929163188 0 0)
(0.09405267767999086 0 0)
(0.09637711276210935 0 0)
(0.09652209179414857 0 0)
(0.09624592789669272 0 0)
(0.09565184660557753 0 0)
(0.09451749224088353 0 0)
(0.09267939998169596 0 0)
(0.08998097345328167 0 0)
(0.08624397821338084 0 0)
(0.0812817649739402 0 0)
(0.0749217933606017 0 0)
(0.06701541625728591 0 0)
(0.05744373353540818 0 0)
(0.04612836053822534 0 0)
(0.03304428287199077 0 0)
(0.01822820630096396 0 0)
(0.001780798938971559 0 0)
(-0.01612154577863387 0 0)
(-0.03519460538006582 0 0)
(-0.05500740821524918 0 0)
(-0.07481036974762946 0 0)
(-0.09295872668922116 0 0)
(-0.1066118104648185 0 0)
(-0.1136850993886598 0 0)
(-0.1155391201595462 0 0)
(-0.1156097506257916 0 0)
(-0.1153603134984124 0 0)
(-0.1147701334342485 0 0)
(-0.1136518388637972 0 0)
(-0.111847141569025 0 0)
(-0.1091858699506248 0 0)
(-0.1054847928318862 0 0)
(-0.1005727578821932 0 0)
(-0.09430675021384606 0 0)
(-0.08657264008230846 0 0)
(-0.07728597128572663 0 0)
(-0.06639918948744386 0 0)
(-0.05391089544626269 0 0)
(-0.03987072796694375 0 0)
(-0.02437746490507731 0 0)
(-0.007581714255973371 0 0)
(0.01029454547888866 0 0)
(0.02893406707730035 0 0)
(0.04784887185213901 0 0)
(0.06598360743032738 0 0)
(0.08113205738094192 0 0)
(0.09082640446626314 0 0)
(0.09459348619722156 0 0)
(0.09506478033182401 0 0)
(0.09490417869330932 0 0)
(0.09447448560495668 0 0)
(0.09354757037869434 0 0)
(0.09196056036678765 0 0)
(0.08956677560409397 0 0)
(0.08620001524377371 0 0)
(0.0816811447119649 0 0)
(0.0758417345598647 0 0)
(0.06853335233128879 0 0)
(0.05963033031552124 0 0)
(0.04903763619491865 0 0)
(0.03670311173039389 0 0)
(0.02262799453618199 0 0)
(0.006872179532048666 0 0)
(-0.01043637403750001 0 0)
(-0.02907032378317228 0 0)
(-0.04865987769844191 0 0)
(-0.06858581127552515 0 0)
(-0.0875419267660264 0 0)
(-0.1029223786530764 0 0)
(-0.1120030968026141 0 0)
(-0.1150924865768375 0 0)
(-0.1154439610000482 0 0)
(-0.1152802388788135 0 0)
(-0.1148496331909738 0 0)
(-0.1139310775849435 0 0)
(-0.1123745817234079 0 0)
(-0.1100202988692605 0 0)
(-0.1066896205447806 0 0)
(-0.1022117757858297 0 0)
(-0.09644380802894249 0 0)
(-0.08927110789332765 0 0)
(-0.08060421697541968 0 0)
(-0.07038322916037022 0 0)
(-0.05858650552061229 0 0)
(-0.04523707695734252 0 0)
(-0.03040320696472099 0 0)
(-0.01419883867921605 0 0)
(0.003199309846026485 0 0)
(0.02151927705476902 0 0)
(0.04034510863381056 0 0)
(0.05887135236283924 0 0)
(0.07524587327249048 0 0)
(0.08676784494734784 0 0)
(0.09219541369730282 0 0)
(0.09329777795048556 0 0)
(0.09326603150736901 0 0)
(0.09298623379524666 0 0)
(0.09226645256097608 0 0)
(0.09092711415365397 0 0)
(0.08882655500739588 0 0)
(0.08580716339326452 0 0)
(0.08169413414282012 0 0)
(0.07632349241651915 0 0)
(0.06955251721029908 0 0)
(0.06125605209573098 0 0)
(0.05132919381193125 0 0)
(0.03969991403454433 0 0)
(0.02634229589063435 0 0)
(0.01128372856455746 0 0)
(-0.005388844097402925 0 0)
(-0.02350172458122233 0 0)
(-0.04274562899999244 0 0)
(-0.06260865247821995 0 0)
(-0.08208477486756453 0 0)
(-0.09895508990930837 0 0)
(-0.1101294023214133 0 0)
(-0.1148123329600763 0 0)
(-0.1156787807192744 0 0)
(-0.1156011066769676 0 0)
(-0.1153199013910558 0 0)
(-0.1146064195564538 0 0)
(-0.1133010340381728 0 0)
(-0.1112524096513466 0 0)
(-0.1082864953059853 0 0)
(-0.104231331150576 0 0)
(-0.09894178088425218 0 0)
(-0.09230201962115768 0 0)
(-0.08421979217841537 0 0)
(-0.0746277642240234 0 0)
(-0.06349072176156326 0 0)
(-0.05081226446537732 0 0)
(-0.03663689052236171 0 0)
(-0.02104918766544487 0 0)
(-0.004188128070509775 0 0)
(0.01371736085735587 0 0)
(0.03231507868152138 0 0)
(0.0509917366876604 0 0)
(0.0682931470306414 0 0)
(0.08153062391271185 0 0)
(0.08877381555430974 0 0)
(0.0908941907150778 0 0)
(0.0910518285124754 0 0)
(0.09089448606619877 0 0)
(0.09038590330626206 0 0)
(0.08930159628879399 0 0)
(0.08750549386568335 0 0)
(0.08484540281336889 0 0)
(0.08115343333069158 0 0)
(0.07626959182196348 0 0)
(0.07005625806292586 0 0)
(0.06239296267451694 0 0)
(0.05317427973452143 0 0)
(0.04231975368329392 0 0)
(0.02978727696217895 0 0)
(0.0155821149139304 0 0)
(-0.0002381193033905877 0 0)
(-0.01754356610071834 0 0)
(-0.0360823727811454 0 0)
(-0.05542574064975191 0 0)
(-0.07478127737791877 0 0)
(-0.09236412120183987 0 0)
(-0.1051410723491474 0 0)
(-0.1113840579692379 0 0)
(-0.1129620008838297 0 0)
(-0.11299057485509 0 0)
(-0.112836617930348 0 0)
(-0.1123019882414951 0 0)
(-0.1112317555133527 0 0)
(-0.1094814053218312 0 0)
(-0.1068860151277097 0 0)
(-0.1032745718445802 0 0)
(-0.09850075696686539 0 0)
(-0.09244958128101984 0 0)
(-0.08502932453470824 0 0)
(-0.07616933632359946 0 0)
(-0.06582606461478077 0 0)
(-0.05398988979109339 0 0)
(-0.04068778678510782 0 0)
(-0.02598242870073991 0 0)
(-0.009980205867562703 0 0)
(0.007139027414397731 0 0)
(0.02508621180750393 0 0)
(0.04337401447853403 0 0)
(0.06093173794439424 0 0)
(0.0754492860163184 0 0)
(0.08443886625661116 0 0)
(0.08785662544510339 0 0)
(0.08831566321412772 0 0)
(0.08830768984130255 0 0)
(0.08798641960409827 0 0)
(0.08715662358543032 0 0)
(0.08566745989168942 0 0)
(0.08337384153361729 0 0)
(0.08011210288858174 0 0)
(0.07572107599026215 0 0)
(0.07006445717202706 0 0)
(0.06302692819176374 0 0)
(0.05450449585758523 0 0)
(0.04440829036783606 0 0)
(0.0326785419450283 0 0)
(0.01929676172771331 0 0)
(0.00429143930636081 0 0)
(-0.01224969672559693 0 0)
(-0.03013744833854595 0 0)
(-0.04902382928228682 0 0)
(-0.06828925218628155 0 0)
(-0.08660109400852645 0 0)
(-0.1012586412987247 0 0)
(-0.1095951739853477 0 0)
(-0.1123668022773378 0 0)
(-0.1126551936111124 0 0)
(-0.1126075618544085 0 0)
(-0.1122454714822839 0 0)
(-0.1114085696709902 0 0)
(-0.1099408197079047 0 0)
(-0.1076849908697105 0 0)
(-0.1044677849443174 0 0)
(-0.1001354764302669 0 0)
(-0.09456811761765065 0 0)
(-0.08767120205338851 0 0)
(-0.07936968652481362 0 0)
(-0.06961241811588242 0 0)
(-0.05837915048071861 0 0)
(-0.04568443129952616 0 0)
(-0.03157727110515188 0 0)
(-0.01614210342111027 0 0)
(0.0004789978098474312 0 0)
(0.01804014840136598 0 0)
(0.03613731390225564 0 0)
(0.05398593680281079 0 0)
(0.06974105500139026 0 0)
(0.08057504254419352 0 0)
(0.08555892181216243 0 0)
(0.08660664771338128 0 0)
(0.08673942998344834 0 0)
(0.08656244352920793 0 0)
(0.08597386892571801 0 0)
(0.08476429765172648 0 0)
(0.0827931021967846 0 0)
(0.07990094673040293 0 0)
(0.0759244477861883 0 0)
(0.0707247502396353 0 0)
(0.06418846336845337 0 0)
(0.05621390145880506 0 0)
(0.0467096945133717 0 0)
(0.03560690805600267 0 0)
(0.02287247876046144 0 0)
(0.008517283973071449 0 0)
(-0.007397565534170493 0 0)
(-0.02473068236587058 0 0)
(-0.04319409890516494 0 0)
(-0.06227791774829802 0 0)
(-0.080977893765576 0 0)
(-0.09707091615605 0 0)
(-0.107458633652389 0 0)
(-0.1116716511944327 0 0)
(-0.1124502863673939 0 0)
(-0.1124727865540589 0 0)
(-0.1122573439833973 0 0)
(-0.1116245645003276 0 0)
(-0.1104073762284837 0 0)
(-0.1084569051460819 0 0)
(-0.1056001141293832 0 0)
(-0.1016773666510342 0 0)
(-0.09656359012015535 0 0)
(-0.09016139631850791 0 0)
(-0.08239110490884304 0 0)
(-0.073193232027791 0 0)
(-0.062536829746897 0 0)
(-0.0504251120964943 0 0)
(-0.03689588583894549 0 0)
(-0.02201990846718308 0 0)
(-0.005914891876375989 0 0)
(0.01121452939727364 0 0)
(0.02903273639351041 0 0)
(0.04693036897425466 0 0)
(0.06350709819573905 0 0)
(0.07608698767776446 0 0)
(0.08279427818408258 0 0)
(0.0848253811871006 0 0)
(0.08504156578474294 0 0)
(0.08503281732839676 0 0)
(0.08465326119472082 0 0)
(0.0837133405476824 0 0)
(0.08206107143515709 0 0)
(0.07953347012258689 0 0)
(0.0759644915086784 0 0)
(0.07121018331247046 0 0)
(0.06515671398491388 0 0)
(0.05770736442151016 0 0)
(0.04877329343028674 0 0)
(0.03827917230991759 0 0)
(0.02617770608255354 0 0)
(0.01246247104658804 0 0)
(-0.002825658120630142 0 0)
(-0.01957886223714619 0 0)
(-0.03756509512957031 0 0)
(-0.0563633374343525 0 0)
(-0.07519421926709745 0 0)
(-0.09232118542258795 0 0)
(-0.1047001411440783 0 0)
(-0.1106279135571247 0 0)
(-0.1121950736419541 0 0)
(-0.1122449658168591 0 0)
(-0.1121951180171758 0 0)
(-0.111752969675129 0 0)
(-0.1107796648931734 0 0)
(-0.1091245210918312 0 0)
(-0.1066133428879191 0 0)
(-0.1030804443770199 0 0)
(-0.09839765503015543 0 0)
(-0.09246838070002798 0 0)
(-0.08521223021663478 0 0)
(-0.07656333486538607 0 0)
(-0.06647886373885795 0 0)
(-0.05494705710755336 0 0)
(-0.04199144968160588 0 0)
(-0.02767140444992068 0 0)
(-0.01208686746623413 0 0)
(0.004592405967495878 0 0)
(0.02207631610050999 0 0)
(0.03986466306500001 0 0)
(0.05692122485328197 0 0)
(0.07103794928710253 0 0)
(0.07958081090059159 0 0)
(0.08281777027826313 0 0)
(0.08328228810271014 0 0)
(0.08341923742541815 0 0)
(0.08321037213197856 0 0)
(0.08254244641121769 0 0)
(0.08120821969384194 0 0)
(0.07904461186646894 0 0)
(0.07587570796458401 0 0)
(0.07155012757864702 0 0)
(0.06595656171338778 0 0)
(0.05900670145561285 0 0)
(0.05061805160166305 0 0)
(0.04071422862824242 0 0)
(0.02923693265475994 0 0)
(0.01616069949747266 0 0)
(0.001505284692464333 0 0)
(-0.01465115738958319 0 0)
(-0.03212868040588918 0 0)
(-0.05057070286885353 0 0)
(-0.06933741160823888 0 0)
(-0.08711694228583701 0 0)
(-0.1012886065992299 0 0)
(-0.1091670925720077 0 0)
(-0.1117357332067615 0 0)
(-0.1120358275966873 0 0)
(-0.1120635828293534 0 0)
(-0.1117846540020016 0 0)
(-0.1110523369922138 0 0)
(-0.1096910273244195 0 0)
(-0.1075241544112969 0 0)
(-0.1043729086566352 0 0)
(-0.1000991829197545 0 0)
(-0.09460874139338875 0 0)
(-0.08783038915312553 0 0)
(-0.0797031315914187 0 0)
(-0.07017905173195109 0 0)
(-0.05923195715158316 0 0)
(-0.04686539303270094 0 0)
(-0.0331183111634562 0 0)
(-0.01806954211849482 0 0)
(-0.001860641089130921 0 0)
(0.01525459065806879 0 0)
(0.03285803427842549 0 0)
(0.05015863190803242 0 0)
(0.0654084403374864 0 0)
(0.07584437670091806 0 0)
(0.08048985245212567 0 0)
(0.0815809573818088 0 0)
(0.08169084882083914 0 0)
(0.08164201148976631 0 0)
(0.08120955925863579 0 0)
(0.08019212222429968 0 0)
(0.07840761443510502 0 0)
(0.07565916457826988 0 0)
(0.07177308935336063 0 0)
(0.06662595599913695 0 0)
(0.06013660644468194 0 0)
(0.05224286407133408 0 0)
(0.0428857375570626 0 0)
(0.03200883026041964 0 0)
(0.01957097683855051 0 0)
(0.005565063072595268 0 0)
(-0.009964862773423002 0 0)
(-0.02688887826291653 0 0)
(-0.04491641035479882 0 0)
(-0.06352042592088911 0 0)
(-0.08168757313354492 0 0)
(-0.09725964219017895 0 0)
(-0.1072234231964438 0 0)
(-0.1111227053058025 0 0)
(-0.1119113877261407 0 0)
(-0.1118610763936994 0 0)
(-0.1117358316361584 0 0)
(-0.1112116309250192 0 0)
(-0.1101444396269093 0 0)
(-0.1083422106329167 0 0)
(-0.105598646909034 0 0)
(-0.1017466202042094 0 0)
(-0.09667865239085996 0 0)
(-0.09033194622327965 0 0)
(-0.08266643774903824 0 0)
(-0.07365159501981132 0 0)
(-0.06326359318091167 0 0)
(-0.05149134123609904 0 0)
(-0.03834811093581134 0 0)
(-0.02388141109707085 0 0)
(-0.008191418468675049 0 0)
(0.008518173598510412 0 0)
(0.0258853144085414 0 0)
(0.04327414209659868 0 0)
(0.05932337804837126 0 0)
(0.0715561476920013 0 0)
(0.07793233606348143 0 0)
(0.07978911706703057 0 0)
(0.07993219566416562 0 0)
(0.07994644879932139 0 0)
(0.07967095435550092 0 0)
(0.07894523349509015 0 0)
(0.07755346291036672 0 0)
(0.07526712438253486 0 0)
(0.07186957800068371 0 0)
(0.06720216823616455 0 0)
(0.06116985224680566 0 0)
(0.05372142990478442 0 0)
(0.04482931100003187 0 0)
(0.03447468789762657 0 0)
(0.02263604373079096 0 0)
(0.009291415473752984 0 0)
(-0.005558841090153538 0 0)
(-0.02185092420432473 0 0)
(-0.03937634408126924 0 0)
(-0.05770323339907615 0 0)
(-0.07603940560792796 0 0)
(-0.09267253793077092 0 0)
(-0.104693090428003 0 0)
(-0.1103727413036629 0 0)
(-0.1117451902497201 0 0)
(-0.111775021741585 0 0)
(-0.111625620164936 0 0)
(-0.111209475660035 0 0)
(-0.11038228272011 0 0)
(-0.1089424230867555 0 0)
(-0.1066567821714573 0 0)
(-0.103303403966818 0 0)
(-0.09871992821400843 0 0)
(-0.09281445442886802 0 0)
(-0.08555494867594081 0 0)
(-0.07695080145235832 0 0)
(-0.06702640570896327 0 0)
(-0.05579566583001813 0 0)
(-0.04325848199263906 0 0)
(-0.02942296377937913 0 0)
(-0.01433457056495709 0 0)
(0.001871840619161517 0 0)
(0.0189016701183356 0 0)
(0.036244177169011 0 0)
(0.05286925230180971 0 0)
(0.06660907696175067 0 0)
(0.07497623116957434 0 0)
(0.07798452642724435 0 0)
(0.0784481208908719 0 0)
(0.0782776226428909 0 0)
(0.07802465431660784 0 0)
(0.07742565917900093 0 0)
(0.07633798076633405 0 0)
(0.0745363095491854 0 0)
(0.07174475870329522 0 0)
(0.06770469008363166 0 0)
(0.06223155515800582 0 0)
(0.05523721580182948 0 0)
(0.04672031322301424 0 0)
(0.03673406370077855 0 0)
(0.02534324569987689 0 0)
(0.01258184169419386 0 0)
(-0.00156026679473968 0 0)
(-0.01710567165938996 0 0)
(-0.03398444262401953 0 0)
(-0.05188768919626315 0 0)
(-0.07018665320979331 0 0)
(-0.08755582239043777 0 0)
(-0.1013621589521308 0 0)
(-0.1091481006793143 0 0)
(-0.1116189611321934 0 0)
(-0.1119021248584579 0 0)
(-0.111684616985907 0 0)
(-0.1112717266776388 0 0)
(-0.1104661938974535 0 0)
(-0.1091747547777181 0 0)
(-0.1072454385929211 0 0)
(-0.1044632318114371 0 0)
(-0.1005866210541447 0 0)
(-0.09538640459320574 0 0)
(-0.0886854804823853 0 0)
(-0.08040937567054672 0 0)
(-0.07063714485207201 0 0)
(-0.05959809442137624 0 0)
(-0.0475468570335779 0 0)
(-0.03452977908199073 0 0)
(-0.02036446387219139 0 0)
(-0.004637858307268057 0 0)
(0.01155321590906853 0 0)
(0.03077610575667634 0 0)
)
;

boundaryField
{
    inlet
    {
        type            zeroGradient;
    }
    outlet
    {
        type            velocityOutletNSCBCx;
        pInf            101325;
        gamma           1.4;
        etaAc           1;
        fieldInf        (-1 0 0);
        lInf            2.25;
        value           uniform (0.0383735837538509 0 0);
    }
    frontAndBack
    {
        type            empty;
    }
}


// ************************************************************************* //
