/*--------------------------------*- C++ -*----------------------------------*\
| =========                 |                                                 |
| \\      /  F ield         | OpenFOAM: The Open Source CFD Toolbox           |
|  \\    /   O peration     | Version:  v2012                                 |
|   \\  /    A nd           | Website:  www.openfoam.com                      |
|    \\/     M anipulation  |                                                 |
\*---------------------------------------------------------------------------*/
FoamFile
{
    version     2.0;
    format      ascii;
    class       volVectorField;
    location    "0.019";
    object      UMean;
}
// * * * * * * * * * * * * * * * * * * * * * * * * * * * * * * * * * * * * * //

dimensions      [0 1 -1 0 0 0 0];


internalField   nonuniform List<vector> 
1000
(
(-0.0006500873514116996 0 0)
(-0.0006294453681806956 0 0)
(-0.0006195599115779393 0 0)
(-0.0005959551434672865 0 0)
(-0.0005695562367153041 0 0)
(-0.0005433040281422574 0 0)
(-0.0005079595113574173 0 0)
(-0.0004711684298738109 0 0)
(-0.0004270251471622118 0 0)
(-0.0003809229986041296 0 0)
(-0.0003327694579838185 0 0)
(-0.0002852279737532883 0 0)
(-0.0002379356639454875 0 0)
(-0.0001913029677277497 0 0)
(-0.0001462650809480636 0 0)
(-0.0001034986632055326 0 0)
(-6.419597323924591e-05 0 0)
(-2.88902325428421e-05 0 0)
(1.549050459109817e-06 0 0)
(2.686361136331266e-05 0 0)
(4.643726214018353e-05 0 0)
(6.043281102602442e-05 0 0)
(6.733996993232776e-05 0 0)
(6.813271336491678e-05 0 0)
(6.277645350658744e-05 0 0)
(5.096627218042777e-05 0 0)
(3.320677867321105e-05 0 0)
(9.551810115000904e-06 0 0)
(-1.955699452434609e-05 0 0)
(-5.383624866008756e-05 0 0)
(-9.283467600888549e-05 0 0)
(-0.0001359810330673644 0 0)
(-0.0001818778705444887 0 0)
(-0.0002291017071195915 0 0)
(-0.0002759223621547463 0 0)
(-0.0003227052709083925 0 0)
(-0.0003692700861648883 0 0)
(-0.0004146893483403577 0 0)
(-0.0004584327418355726 0 0)
(-0.0004993971932522104 0 0)
(-0.0005365779112227887 0 0)
(-0.0005692194915576655 0 0)
(-0.0005964703103037396 0 0)
(-0.0006180509338158751 0 0)
(-0.000632941207175656 0 0)
(-0.0006426021781509956 0 0)
(-0.0006452840557209992 0 0)
(-0.0006413372437933718 0 0)
(-0.0006311662072837525 0 0)
(-0.0006146506910650267 0 0)
(-0.000592190877203392 0 0)
(-0.0005640208108985944 0 0)
(-0.0005304430687191096 0 0)
(-0.0004918627643160933 0 0)
(-0.000449302390835461 0 0)
(-0.0004042058155160647 0 0)
(-0.0003586985460559575 0 0)
(-0.000312214904054492 0 0)
(-0.0002663048498559097 0 0)
(-0.0002210961369592049 0 0)
(-0.000176779964163301 0 0)
(-0.0001343244407844532 0 0)
(-9.432672563269476e-05 0 0)
(-5.764769022489777e-05 0 0)
(-2.525700993467315e-05 0 0)
(2.17555038156786e-06 0 0)
(2.389153923011461e-05 0 0)
(4.000199173669452e-05 0 0)
(4.903823550575078e-05 0 0)
(5.173594975820354e-05 0 0)
(4.837231671162432e-05 0 0)
(3.84408948091462e-05 0 0)
(2.252972679093232e-05 0 0)
(5.020970074435417e-07 0 0)
(-2.724022607870312e-05 0 0)
(-6.067227248272174e-05 0 0)
(-9.916128946719919e-05 0 0)
(-0.0001420905534503815 0 0)
(-0.00018736889013333 0 0)
(-0.0002344443485937287 0 0)
(-0.000280236871527918 0 0)
(-0.0003267345175202866 0 0)
(-0.0003727649186861746 0 0)
(-0.0004180582666351684 0 0)
(-0.0004620070938553957 0 0)
(-0.0005039513868941706 0 0)
(-0.0005427548806296182 0 0)
(-0.0005777411177859739 0 0)
(-0.0006078328714953511 0 0)
(-0.0006325499201889161 0 0)
(-0.0006508408844324442 0 0)
(-0.0006630350328343614 0 0)
(-0.0006690191786158136 0 0)
(-0.0006678450481024483 0 0)
(-0.0006602801127406798 0 0)
(-0.0006462483865940716 0 0)
(-0.0006260220062991811 0 0)
(-0.0005997039378555401 0 0)
(-0.0005677037947008939 0 0)
(-0.0005302813027432304 0 0)
(-0.0004887853530720747 0 0)
(-0.0004446684302012077 0 0)
(-0.0004005462701507458 0 0)
(-0.0003547986516744603 0 0)
(-0.0003103144859587718 0 0)
(-0.0002658617803202094 0 0)
(-0.0002224045029812068 0 0)
(-0.0001803247074053369 0 0)
(-0.00014037633223015 0 0)
(-0.0001032005191323966 0 0)
(-6.964397960950544e-05 0 0)
(-4.054837158646626e-05 0 0)
(-1.660344689074791e-05 0 0)
(1.489466226265594e-06 0 0)
(1.381287204257119e-05 0 0)
(1.838855006584231e-05 0 0)
(1.714276823791981e-05 0 0)
(9.262280432778626e-06 0 0)
(-4.961776352662491e-06 0 0)
(-2.547731182980981e-05 0 0)
(-5.190186979449366e-05 0 0)
(-8.433299849046708e-05 0 0)
(-0.0001220030166615656 0 0)
(-0.000164297566768641 0 0)
(-0.0002090749986034077 0 0)
(-0.0002556858772773792 0 0)
(-0.000301161661531983 0 0)
(-0.0003475823661715852 0 0)
(-0.0003930628249118347 0 0)
(-0.0004384720504411933 0 0)
(-0.0004824796261811464 0 0)
(-0.0005250549598151023 0 0)
(-0.0005649842874682896 0 0)
(-0.000601592500084342 0 0)
(-0.0006339408388028401 0 0)
(-0.0006612655250082387 0 0)
(-0.0006829533457499503 0 0)
(-0.0006977300914328793 0 0)
(-0.0007073487512646281 0 0)
(-0.0007093996861311791 0 0)
(-0.0007045758999241536 0 0)
(-0.0006932023832335853 0 0)
(-0.0006751964197409526 0 0)
(-0.0006508758885018995 0 0)
(-0.0006204748199148442 0 0)
(-0.0005845289920969984 0 0)
(-0.0005441852123992131 0 0)
(-0.0005012637136752875 0 0)
(-0.0004577929143442709 0 0)
(-0.0004137577772405949 0 0)
(-0.0003699118372572179 0 0)
(-0.0003260638281804688 0 0)
(-0.0002834607188948418 0 0)
(-0.0002417238349134077 0 0)
(-0.0002019450858428462 0 0)
(-0.0001646391156257436 0 0)
(-0.0001303642793076138 0 0)
(-0.0001001432582898094 0 0)
(-7.446460287981516e-05 0 0)
(-5.449857755174037e-05 0 0)
(-3.951393555871031e-05 0 0)
(-3.264612481202383e-05 0 0)
(-3.154313714153227e-05 0 0)
(-3.705873560282424e-05 0 0)
(-4.93384370314933e-05 0 0)
(-6.813788171620013e-05 0 0)
(-9.323826824492584e-05 0 0)
(-0.0001244417484534963 0 0)
(-0.0001612780533035088 0 0)
(-0.000202781191482191 0 0)
(-0.0002472588724474108 0 0)
(-0.0002929626464028648 0 0)
(-0.0003393729571956313 0 0)
(-0.0003847790069726745 0 0)
(-0.0004301837894305904 0 0)
(-0.0004756009661926528 0 0)
(-0.0005197634194534798 0 0)
(-0.0005627602599524709 0 0)
(-0.0006036073456066191 0 0)
(-0.0006415376349514924 0 0)
(-0.0006756984821499338 0 0)
(-0.000705267198788978 0 0)
(-0.000729711765461214 0 0)
(-0.0007474757556512944 0 0)
(-0.0007602593574662347 0 0)
(-0.0007656608173082931 0 0)
(-0.0007638514845709398 0 0)
(-0.0007553600051528832 0 0)
(-0.0007398983711365779 0 0)
(-0.0007178539340691866 0 0)
(-0.0006892014102219721 0 0)
(-0.000654886821401465 0 0)
(-0.0006157249733120704 0 0)
(-0.0005740229232473877 0 0)
(-0.0005309788725862926 0 0)
(-0.0004889465758607558 0 0)
(-0.0004449443065270963 0 0)
(-0.0004022548514031231 0 0)
(-0.0003601758357322142 0 0)
(-0.0003190073405310455 0 0)
(-0.0002793639822019526 0 0)
(-0.0002420285392818961 0 0)
(-0.0002073838192500638 0 0)
(-0.0001762913673705388 0 0)
(-0.0001493304256758863 0 0)
(-0.0001275732292796579 0 0)
(-0.0001108365383196139 0 0)
(-0.0001009832384070211 0 0)
(-9.784534102630161e-05 0 0)
(-0.0001009620445744894 0 0)
(-0.0001110248989964219 0 0)
(-0.0001278710507269797 0 0)
(-0.000151339843807174 0 0)
(-0.0001811479857789838 0 0)
(-0.0002169606038645998 0 0)
(-0.0002576462641574592 0 0)
(-0.0003017490399435297 0 0)
(-0.0003468527367295251 0 0)
(-0.0003936778946745871 0 0)
(-0.0004382065758934291 0 0)
(-0.0004840234800969464 0 0)
(-0.0005291650947791813 0 0)
(-0.0005736852087290671 0 0)
(-0.0006169198555765986 0 0)
(-0.0006584749004151324 0 0)
(-0.0006975854357335283 0 0)
(-0.0007332235830714501 0 0)
(-0.0007647873415458551 0 0)
(-0.0007914207328284113 0 0)
(-0.0008124952537959863 0 0)
(-0.0008270600118183378 0 0)
(-0.0008363123408957385 0 0)
(-0.0008377358494810333 0 0)
(-0.0008322661462455859 0 0)
(-0.0008195904761138245 0 0)
(-0.000800047682678993 0 0)
(-0.0007735454699289232 0 0)
(-0.0007409361314593676 0 0)
(-0.0007031704371596629 0 0)
(-0.0006625054310704121 0 0)
(-0.0006202837741310808 0 0)
(-0.0005790959073620222 0 0)
(-0.0005358405078213046 0 0)
(-0.0004942306609970733 0 0)
(-0.0004523539507313967 0 0)
(-0.0004119197133191113 0 0)
(-0.0003723809275722255 0 0)
(-0.0003350715537381463 0 0)
(-0.0003002269518142228 0 0)
(-0.0002684945884923896 0 0)
(-0.0002405724906877655 0 0)
(-0.0002171925324279145 0 0)
(-0.0001992204665383385 0 0)
(-0.0001862090529456418 0 0)
(-0.0001813138373830816 0 0)
(-0.0001821883992595362 0 0)
(-0.0001898322563941239 0 0)
(-0.0002044823742135664 0 0)
(-0.0002260353359209751 0 0)
(-0.0002543223234721182 0 0)
(-0.0002887510480147807 0 0)
(-0.0003286040032424345 0 0)
(-0.000372096844348616 0 0)
(-0.0004171040147766317 0 0)
(-0.0004631710155292393 0 0)
(-0.0005085989162661804 0 0)
(-0.0005540040841148131 0 0)
(-0.0005988498933908695 0 0)
(-0.0006436892574090647 0 0)
(-0.0006871594180173456 0 0)
(-0.0007292449088312485 0 0)
(-0.0007693209097186404 0 0)
(-0.000806293791946158 0 0)
(-0.0008395829976056003 0 0)
(-0.0008681838286371223 0 0)
(-0.0008919933796317574 0 0)
(-0.0009087787347796622 0 0)
(-0.0009213294006206525 0 0)
(-0.000925974489614891 0 0)
(-0.0009234716077802338 0 0)
(-0.0009137527295468539 0 0)
(-0.0008969221452881807 0 0)
(-0.0008728841794445689 0 0)
(-0.0008421869892550832 0 0)
(-0.0008060375193343419 0 0)
(-0.0007663834837600496 0 0)
(-0.0007253025200199244 0 0)
(-0.0006840299683304023 0 0)
(-0.0006432161856213592 0 0)
(-0.0006012397149270404 0 0)
(-0.0005600438952485865 0 0)
(-0.0005200933793891691 0 0)
(-0.000480922521127902 0 0)
(-0.0004435838144418876 0 0)
(-0.0004085705884978402 0 0)
(-0.0003764933245187436 0 0)
(-0.0003477455135836015 0 0)
(-0.0003231431619269565 0 0)
(-0.00030369296671057 0 0)
(-0.0002887050776539273 0 0)
(-0.0002816701473451142 0 0)
(-0.0002804053480708435 0 0)
(-0.0002855778203074536 0 0)
(-0.0002979836382630758 0 0)
(-0.0003173903950719718 0 0)
(-0.0003438700003204612 0 0)
(-0.0003767603007011932 0 0)
(-0.0004155234992565668 0 0)
(-0.0004582927613942378 0 0)
(-0.0005032786059219097 0 0)
(-0.000548410353079055 0 0)
(-0.0005952566800283338 0 0)
(-0.0006393995699354391 0 0)
(-0.000684637465769336 0 0)
(-0.0007294278675085629 0 0)
(-0.0007733481476494592 0 0)
(-0.000815768708729083 0 0)
(-0.0008565988588727265 0 0)
(-0.0008948378248796602 0 0)
(-0.0009296063113369379 0 0)
(-0.0009601008682773364 0 0)
(-0.0009859781619209528 0 0)
(-0.001005655665232547 0 0)
(-0.001020211702885269 0 0)
(-0.001028356833967611 0 0)
(-0.001028854626649125 0 0)
(-0.001022245302110126 0 0)
(-0.001008189750718853 0 0)
(-0.0009868508384448496 0 0)
(-0.0009584546383725427 0 0)
(-0.0009240402811384931 0 0)
(-0.0008856395346828656 0 0)
(-0.0008455638268963617 0 0)
(-0.000804611670411158 0 0)
(-0.0007653725337678288 0 0)
(-0.0007232307053176422 0 0)
(-0.0006832003308715154 0 0)
(-0.0006434117204117132 0 0)
(-0.0006048121026450909 0 0)
(-0.0005674820191528994 0 0)
(-0.0005323332811177391 0 0)
(-0.0005000146299378699 0 0)
(-0.0004706513410593611 0 0)
(-0.0004451403085405682 0 0)
(-0.0004240807226172915 0 0)
(-0.0004082188838008452 0 0)
(-0.0003976824972158419 0 0)
(-0.000395082610759783 0 0)
(-0.0003980759342221062 0 0)
(-0.0004082249910099383 0 0)
(-0.0004253051499095904 0 0)
(-0.0004498017079317233 0 0)
(-0.0004810129789880732 0 0)
(-0.0005183641493219872 0 0)
(-0.0005603153762436996 0 0)
(-0.0006049741081385551 0 0)
(-0.0006499210165558007 0 0)
(-0.0006965457914692336 0 0)
(-0.0007409197388441721 0 0)
(-0.0007863672610304155 0 0)
(-0.0008308325607793644 0 0)
(-0.0008751912132146524 0 0)
(-0.0009180001854224124 0 0)
(-0.0009593810934708357 0 0)
(-0.0009986289018478047 0 0)
(-0.001034851703670174 0 0)
(-0.001067044825018643 0 0)
(-0.001094683953771587 0 0)
(-0.001117353862754088 0 0)
(-0.001133193660529456 0 0)
(-0.00114483317744042 0 0)
(-0.001148491546030537 0 0)
(-0.001144819696543305 0 0)
(-0.001133691365972952 0 0)
(-0.001115144919333683 0 0)
(-0.001089314141035508 0 0)
(-0.001056897015902357 0 0)
(-0.001019932042750062 0 0)
(-0.0009807115121618342 0 0)
(-0.0009407635699655409 0 0)
(-0.0009013171670233263 0 0)
(-0.0008614790756165686 0 0)
(-0.0008213259923167932 0 0)
(-0.0007818253733933084 0 0)
(-0.0007436733884507445 0 0)
(-0.0007065680300960284 0 0)
(-0.0006712274318008467 0 0)
(-0.0006386007346360221 0 0)
(-0.0006089182310802414 0 0)
(-0.0005825770855181217 0 0)
(-0.0005602406319904044 0 0)
(-0.0005432239288537619 0 0)
(-0.0005302801537170887 0 0)
(-0.0005259918274795289 0 0)
(-0.0005269697317189363 0 0)
(-0.0005346678570236498 0 0)
(-0.0005495385470322962 0 0)
(-0.0005717229121846412 0 0)
(-0.0006010698655930087 0 0)
(-0.0006368567004026582 0 0)
(-0.0006777358721907819 0 0)
(-0.0007218235683414761 0 0)
(-0.0007669856958658605 0 0)
(-0.000812391145068234 0 0)
(-0.000858746454648638 0 0)
(-0.0009028940569273736 0 0)
(-0.0009475901941304406 0 0)
(-0.0009920759169676102 0 0)
(-0.001035393874702382 0 0)
(-0.001077171202747756 0 0)
(-0.001117178615958515 0 0)
(-0.001154736991415474 0 0)
(-0.00118851150096059 0 0)
(-0.001217910197267092 0 0)
(-0.001242727877913234 0 0)
(-0.001260933767822358 0 0)
(-0.001274979128222106 0 0)
(-0.001281834122018999 0 0)
(-0.001280963747967176 0 0)
(-0.001272949034515307 0 0)
(-0.001257151984440464 0 0)
(-0.001234115025228826 0 0)
(-0.001204008747591179 0 0)
(-0.001168660768589458 0 0)
(-0.001130400257867387 0 0)
(-0.001091467527622669 0 0)
(-0.001051899997096588 0 0)
(-0.001014264658252487 0 0)
(-0.0009734878919109293 0 0)
(-0.0009349414399345434 0 0)
(-0.000896970913777291 0 0)
(-0.0008602660511100653 0 0)
(-0.0008248825649727081 0 0)
(-0.0007919177006700796 0 0)
(-0.0007618903604685586 0 0)
(-0.0007350374646948137 0 0)
(-0.0007116672641349218 0 0)
(-0.0006931294220677937 0 0)
(-0.0006792346488801489 0 0)
(-0.0006716686228566732 0 0)
(-0.0006713555627576056 0 0)
(-0.0006768539483583122 0 0)
(-0.0006895567892047879 0 0)
(-0.0007093590627496465 0 0)
(-0.0007366400553667775 0 0)
(-0.0007706908972200557 0 0)
(-0.000810270116695834 0 0)
(-0.0008536137754322194 0 0)
(-0.0008987178294469146 0 0)
(-0.0009436706887879117 0 0)
(-0.0009905054905024883 0 0)
(-0.001034260505765208 0 0)
(-0.001079431073431349 0 0)
(-0.001123646957335882 0 0)
(-0.001167436793144679 0 0)
(-0.001209719618084057 0 0)
(-0.001250245464475327 0 0)
(-0.001288807647786079 0 0)
(-0.001324205315890684 0 0)
(-0.00135527740317631 0 0)
(-0.001381774722832025 0 0)
(-0.001403096657864677 0 0)
(-0.001417831736588052 0 0)
(-0.001428335519882082 0 0)
(-0.00143053380370258 0 0)
(-0.001425477901162914 0 0)
(-0.001412642544737248 0 0)
(-0.001392360923611723 0 0)
(-0.001364856081572486 0 0)
(-0.001331419019998765 0 0)
(-0.0012943282115418 0 0)
(-0.001256130236204936 0 0)
(-0.001217393336632996 0 0)
(-0.00117975191943843 0 0)
(-0.001140865077966347 0 0)
(-0.001102438795726266 0 0)
(-0.001064537382064038 0 0)
(-0.001028214926460051 0 0)
(-0.0009930034555432543 0 0)
(-0.0009596986492697512 0 0)
(-0.000929225594816831 0 0)
(-0.0009020370889507563 0 0)
(-0.0008779346601246819 0 0)
(-0.0008579302986613073 0 0)
(-0.0008432272050853217 0 0)
(-0.0008326508993416469 0 0)
(-0.0008310558950616586 0 0)
(-0.0008346021971887188 0 0)
(-0.0008448932783357875 0 0)
(-0.0008624890765102092 0 0)
(-0.0008873593893573404 0 0)
(-0.0009195439641805481 0 0)
(-0.0009576474534602531 0 0)
(-0.001000104055100333 0 0)
(-0.001044747133028609 0 0)
(-0.001089988803429329 0 0)
(-0.001135499854368676 0 0)
(-0.001181441685721643 0 0)
(-0.001225358023588403 0 0)
(-0.001269689430281308 0 0)
(-0.00131371131200768 0 0)
(-0.001356499461628097 0 0)
(-0.001397526273204502 0 0)
(-0.001436760512773225 0 0)
(-0.001473517234749375 0 0)
(-0.001506387957774497 0 0)
(-0.001534349344500253 0 0)
(-0.001558118924986528 0 0)
(-0.001574622302311088 0 0)
(-0.001587862043709179 0 0)
(-0.001593113818162298 0 0)
(-0.001590740364496895 0 0)
(-0.001581002785504056 0 0)
(-0.001563459875540644 0 0)
(-0.001538688959055081 0 0)
(-0.001507407027377293 0 0)
(-0.0014716991261859 0 0)
(-0.001434171734509577 0 0)
(-0.001396436352512735 0 0)
(-0.001358434453349089 0 0)
(-0.001322036571581474 0 0)
(-0.001282756037992196 0 0)
(-0.001245636316436972 0 0)
(-0.001209471992134344 0 0)
(-0.0011745000751297 0 0)
(-0.00114113049161139 0 0)
(-0.001110071382981146 0 0)
(-0.001082449036262731 0 0)
(-0.001057894044963247 0 0)
(-0.001036619362160655 0 0)
(-0.001020613770300719 0 0)
(-0.001008813260794253 0 0)
(-0.001004131847659065 0 0)
(-0.001006356678100797 0 0)
(-0.001014408388824059 0 0)
(-0.00102983400638633 0 0)
(-0.001052326288636325 0 0)
(-0.001082303425946687 0 0)
(-0.001118820573496248 0 0)
(-0.001160061183588054 0 0)
(-0.001204250502924863 0 0)
(-0.001249461012137687 0 0)
(-0.001294335986178717 0 0)
(-0.001341061880859245 0 0)
(-0.001384336278192066 0 0)
(-0.00142914341760688 0 0)
(-0.001472918277932847 0 0)
(-0.001516159754819927 0 0)
(-0.001557765607341241 0 0)
(-0.001597435385773905 0 0)
(-0.00163517093486105 0 0)
(-0.001669670797731679 0 0)
(-0.001699343618228813 0 0)
(-0.001724715749727514 0 0)
(-0.001744345545933891 0 0)
(-0.001757913297266767 0 0)
(-0.001766881652467662 0 0)
(-0.001767461423694129 0 0)
(-0.001760628868824252 0 0)
(-0.001746033853672023 0 0)
(-0.001723844525016702 0 0)
(-0.001695064583572963 0 0)
(-0.001660796593132789 0 0)
(-0.001624463390218933 0 0)
(-0.001587128182567936 0 0)
(-0.001549704324217731 0 0)
(-0.001513448599720639 0 0)
(-0.001475797293625195 0 0)
(-0.001438687994677893 0 0)
(-0.001402435615015546 0 0)
(-0.001367734297273251 0 0)
(-0.001334384353237055 0 0)
(-0.001302902647131049 0 0)
(-0.001274509201298074 0 0)
(-0.001249662290938816 0 0)
(-0.001227551122024904 0 0)
(-0.00120974779879115 0 0)
(-0.001197467085811381 0 0)
(-0.001189254370524602 0 0)
(-0.00119042893145227 0 0)
(-0.001196428754617891 0 0)
(-0.001209403349627262 0 0)
(-0.001229620112825399 0 0)
(-0.0012571127551746 0 0)
(-0.001291753538378416 0 0)
(-0.001331609735241488 0 0)
(-0.001375153561451732 0 0)
(-0.001419908548893914 0 0)
(-0.00146491415374188 0 0)
(-0.001510341388670204 0 0)
(-0.001555740161391763 0 0)
(-0.001599168646381689 0 0)
(-0.00164295351497345 0 0)
(-0.001686401189831968 0 0)
(-0.00172841510081269 0 0)
(-0.001768633088942093 0 0)
(-0.001806648720207354 0 0)
(-0.001842866002361248 0 0)
(-0.001873788710926535 0 0)
(-0.00190050804745063 0 0)
(-0.00192297607318941 0 0)
(-0.001937651433747752 0 0)
(-0.001949485068490254 0 0)
(-0.001952925603360137 0 0)
(-0.00194863888862018 0 0)
(-0.00193699228036572 0 0)
(-0.001917455685797206 0 0)
(-0.001890970795724257 0 0)
(-0.001858726679265164 0 0)
(-0.001822823865942084 0 0)
(-0.0017865555509149 0 0)
(-0.001749575371439481 0 0)
(-0.001712688262875581 0 0)
(-0.001677352275968573 0 0)
(-0.001639086857107853 0 0)
(-0.001603359689554046 0 0)
(-0.001568565407943767 0 0)
(-0.001535185714502619 0 0)
(-0.001503454994459386 0 0)
(-0.00147398575836875 0 0)
(-0.001448764551744572 0 0)
(-0.001425412725509377 0 0)
(-0.001406318870653228 0 0)
(-0.001392744635301753 0 0)
(-0.001382806495489064 0 0)
(-0.001380701700793096 0 0)
(-0.001385198933986832 0 0)
(-0.001395695609420416 0 0)
(-0.001413471430578915 0 0)
(-0.001438444210061894 0 0)
(-0.001470504271169956 0 0)
(-0.001509038955549182 0 0)
(-0.00155062923398533 0 0)
(-0.001595976181526373 0 0)
(-0.001640189816589513 0 0)
(-0.001684680831963255 0 0)
(-0.001730729102575367 0 0)
(-0.001773327418414496 0 0)
(-0.001817341292054498 0 0)
(-0.001860336329748696 0 0)
(-0.001902613573448127 0 0)
(-0.001943262191850695 0 0)
(-0.001981562874401929 0 0)
(-0.002018479595819416 0 0)
(-0.002051083031168662 0 0)
(-0.002079152591886779 0 0)
(-0.002103359672706214 0 0)
(-0.002121216812514419 0 0)
(-0.002133239224291449 0 0)
(-0.002140635316106978 0 0)
(-0.002139490783663716 0 0)
(-0.002131012612950867 0 0)
(-0.002114887710326859 0 0)
(-0.002091393239410208 0 0)
(-0.002062207798378178 0 0)
(-0.002028082691158816 0 0)
(-0.00199406495291478 0 0)
(-0.001958402816962686 0 0)
(-0.001922837167259809 0 0)
(-0.001888575142304596 0 0)
(-0.001853026359500794 0 0)
(-0.00181800001459672 0 0)
(-0.001784061679903433 0 0)
(-0.001751819662988132 0 0)
(-0.001720971597423766 0 0)
(-0.001692044161557495 0 0)
(-0.001666326500303065 0 0)
(-0.001644412370870725 0 0)
(-0.001624093745382127 0 0)
(-0.001609970214197703 0 0)
(-0.00160007624699097 0 0)
(-0.001594741734095213 0 0)
(-0.001598695556924076 0 0)
(-0.001607327499861485 0 0)
(-0.001622763685740024 0 0)
(-0.00164546624679812 0 0)
(-0.001675060080055899 0 0)
(-0.001711462865496507 0 0)
(-0.001751875433794357 0 0)
(-0.001795897904605363 0 0)
(-0.001840202652075216 0 0)
(-0.001884096035672261 0 0)
(-0.001928524189782213 0 0)
(-0.001973135548355804 0 0)
(-0.002015187882958879 0 0)
(-0.002058045422988396 0 0)
(-0.002100266000367299 0 0)
(-0.002141058020887204 0 0)
(-0.0021798820735485 0 0)
(-0.002216297441855936 0 0)
(-0.002251579032090717 0 0)
(-0.002279759973774858 0 0)
(-0.0023059359931876 0 0)
(-0.002326308048039476 0 0)
(-0.002339557607784848 0 0)
(-0.002349760153051745 0 0)
(-0.002351665306038959 0 0)
(-0.002345935617844674 0 0)
(-0.002332934777625592 0 0)
(-0.002312413901181617 0 0)
(-0.002285365723017848 0 0)
(-0.002253564028388358 0 0)
(-0.002219284360625325 0 0)
(-0.002185396704101786 0 0)
(-0.002150259954013515 0 0)
(-0.002115564497396061 0 0)
(-0.002082636832868433 0 0)
(-0.002046380694910363 0 0)
(-0.002013337726757103 0 0)
(-0.001981071171881892 0 0)
(-0.001950372699029196 0 0)
(-0.001921466782356576 0 0)
(-0.001894580450919498 0 0)
(-0.001872855047687158 0 0)
(-0.00185138642053622 0 0)
(-0.00183587607794489 0 0)
(-0.001825161122783205 0 0)
(-0.0018184392361364 0 0)
(-0.00181902221147052 0 0)
(-0.001826555068338413 0 0)
(-0.001839771142227409 0 0)
(-0.001860265411288032 0 0)
(-0.001887721064478743 0 0)
(-0.001921838528085984 0 0)
(-0.001961671382712519 0 0)
(-0.002003779501505153 0 0)
(-0.002048889866594132 0 0)
(-0.002092909908325731 0 0)
(-0.002136536810782989 0 0)
(-0.002182014223335338 0 0)
(-0.002223745286140852 0 0)
(-0.002267012847958725 0 0)
(-0.002309020535074027 0 0)
(-0.0023504156722113 0 0)
(-0.002389965748711755 0 0)
(-0.002426898804932055 0 0)
(-0.002462974777391624 0 0)
(-0.002493407255774953 0 0)
(-0.002520040787573924 0 0)
(-0.002543680669690506 0 0)
(-0.002559555989314858 0 0)
(-0.002569848457363059 0 0)
(-0.002575703748465412 0 0)
(-0.002572849999792129 0 0)
(-0.002562676679012043 0 0)
(-0.002545093668763747 0 0)
(-0.002520389290232522 0 0)
(-0.002490640794553632 0 0)
(-0.002457024240539352 0 0)
(-0.002423851310349618 0 0)
(-0.002390086095837739 0 0)
(-0.002355169476382491 0 0)
(-0.002322388453197333 0 0)
(-0.002288273429257864 0 0)
(-0.002254590746900536 0 0)
(-0.002222350211198099 0 0)
(-0.002191911031564221 0 0)
(-0.002162980823040722 0 0)
(-0.002135836922406227 0 0)
(-0.002112577220926807 0 0)
(-0.002092103018946647 0 0)
(-0.00207422025867414 0 0)
(-0.002063216296362211 0 0)
(-0.00205525185525544 0 0)
(-0.002052494419929873 0 0)
(-0.002059076038831269 0 0)
(-0.002070323911039872 0 0)
(-0.002088314080754512 0 0)
(-0.002113624283847308 0 0)
(-0.002145681367956248 0 0)
(-0.002183793989328719 0 0)
(-0.002225433869292515 0 0)
(-0.00226964114524596 0 0)
(-0.002314458712453934 0 0)
(-0.002357635293600494 0 0)
(-0.002402142678582264 0 0)
(-0.002446558795292185 0 0)
(-0.002487945296645682 0 0)
(-0.002530521632804049 0 0)
(-0.002572245090004563 0 0)
(-0.002612394904834767 0 0)
(-0.002650410365274783 0 0)
(-0.002685867558645914 0 0)
(-0.002720000680866936 0 0)
(-0.002747181511450099 0 0)
(-0.002771805369733746 0 0)
(-0.002791159843707274 0 0)
(-0.002802941753769668 0 0)
(-0.002811020353794959 0 0)
(-0.002811535239433448 0 0)
(-0.00280392543109741 0 0)
(-0.002789350013074048 0 0)
(-0.002767416046321479 0 0)
(-0.002739452413411547 0 0)
(-0.002707652453437356 0 0)
(-0.002674410721117038 0 0)
(-0.002641390903506279 0 0)
(-0.002607897304572147 0 0)
(-0.002574032627999697 0 0)
(-0.002542805799383773 0 0)
(-0.002507530166389038 0 0)
(-0.002476353572914413 0 0)
(-0.002445687573907718 0 0)
(-0.002416950118967516 0 0)
(-0.002389933634960269 0 0)
(-0.002365055242521541 0 0)
(-0.002345367632820226 0 0)
(-0.002326411945729422 0 0)
(-0.002312571188474926 0 0)
(-0.002305779040905193 0 0)
(-0.002300851935712012 0 0)
(-0.002303549390659963 0 0)
(-0.002314037891890924 0 0)
(-0.002329823274822262 0 0)
(-0.002352897105722196 0 0)
(-0.002382895002577789 0 0)
(-0.002419073122793195 0 0)
(-0.002460047613751667 0 0)
(-0.002503119731622953 0 0)
(-0.002547630033633545 0 0)
(-0.002592507300624639 0 0)
(-0.002635115084001066 0 0)
(-0.002680752635567775 0 0)
(-0.00272244011474054 0 0)
(-0.00276493179143475 0 0)
(-0.002806562949254521 0 0)
(-0.002847438803116635 0 0)
(-0.002886270021671265 0 0)
(-0.002922205078260705 0 0)
(-0.002957311581414197 0 0)
(-0.002986361119284529 0 0)
(-0.003011862884792976 0 0)
(-0.003034384539715569 0 0)
(-0.00304884372875152 0 0)
(-0.003056971876962944 0 0)
(-0.003061582657673952 0 0)
(-0.003057059253977845 0 0)
(-0.003045100170255903 0 0)
(-0.0030260917441143 0 0)
(-0.003000482003584696 0 0)
(-0.002970170984386143 0 0)
(-0.002937799045926598 0 0)
(-0.002904792912669249 0 0)
(-0.002872857641445277 0 0)
(-0.002838899864254391 0 0)
(-0.002807166375514918 0 0)
(-0.002775471713482054 0 0)
(-0.002742195395552112 0 0)
(-0.002712018766814323 0 0)
(-0.00268344223825388 0 0)
(-0.002656448257234998 0 0)
(-0.00263133609265383 0 0)
(-0.002609921801765684 0 0)
(-0.002591689068727908 0 0)
(-0.002576560527998472 0 0)
(-0.002567038913309784 0 0)
(-0.002563116259036835 0 0)
(-0.002562003812192434 0 0)
(-0.002571032391725686 0 0)
(-0.002585231006937107 0 0)
(-0.002605564295108563 0 0)
(-0.00263345814333811 0 0)
(-0.002667819633680459 0 0)
(-0.002707198978026305 0 0)
(-0.002750133809698424 0 0)
(-0.002793792289620291 0 0)
(-0.002838480570555614 0 0)
(-0.002882775438103346 0 0)
(-0.002925780871221615 0 0)
(-0.002971741450070425 0 0)
(-0.003011007277888928 0 0)
(-0.003053894078641799 0 0)
(-0.003094886397722123 0 0)
(-0.003134520849961872 0 0)
(-0.003171752910069836 0 0)
(-0.003206001308689317 0 0)
(-0.003238850763768657 0 0)
(-0.003265532291115938 0 0)
(-0.003287664497020179 0 0)
(-0.003307563778832027 0 0)
(-0.003316860000427195 0 0)
(-0.003321970747486562 0 0)
(-0.003321730234718248 0 0)
(-0.003312598185390715 0 0)
(-0.003296432832360054 0 0)
(-0.003273569125080122 0 0)
(-0.003245022578473679 0 0)
(-0.003213827410695502 0 0)
(-0.003181229931440847 0 0)
(-0.003149004618871126 0 0)
(-0.003117870630326597 0 0)
(-0.003083715386284748 0 0)
(-0.003054487472979768 0 0)
(-0.003021346764803069 0 0)
(-0.002991147051478502 0 0)
(-0.002962397514138387 0 0)
(-0.002935717895873928 0 0)
(-0.002910727468630337 0 0)
(-0.002887827648941928 0 0)
(-0.002869782652130408 0 0)
(-0.002853493291191132 0 0)
(-0.002842114724358984 0 0)
(-0.002837345514204133 0 0)
(-0.002836074176593023 0 0)
(-0.002839641248690673 0 0)
(-0.002853720367707234 0 0)
(-0.002872435106338945 0 0)
(-0.00289761581762587 0 0)
(-0.002930065551079442 0 0)
(-0.002968125441578628 0 0)
(-0.003009634624595507 0 0)
(-0.003053917528641152 0 0)
(-0.003097451905798058 0 0)
(-0.003142360912369903 0 0)
(-0.003186087106502799 0 0)
(-0.003229479027964702 0 0)
(-0.00327457446128054 0 0)
(-0.003313389285338268 0 0)
(-0.003355593768837999 0 0)
(-0.003395850350020759 0 0)
(-0.003433911173972236 0 0)
(-0.003469337563323864 0 0)
(-0.003501914471032388 0 0)
(-0.003531375131121374 0 0)
(-0.003555821721045045 0 0)
(-0.00357476616507865 0 0)
(-0.003591266143943023 0 0)
(-0.003595704620032767 0 0)
(-0.003597997237265494 0 0)
(-0.003592720916187103 0 0)
(-0.003578829036643808 0 0)
(-0.003558763397634953 0 0)
(-0.003532718255956808 0 0)
(-0.003502279799561649 0 0)
(-0.003471394091070607 0 0)
(-0.003438657686279877 0 0)
(-0.00340714841705364 0 0)
(-0.003376790604733281 0 0)
(-0.003343313073251103 0 0)
(-0.003316550190256486 0 0)
(-0.003280938305972238 0 0)
(-0.003254936375002503 0 0)
(-0.003227677406099787 0 0)
(-0.003202882404794537 0 0)
(-0.003180412633436573 0 0)
(-0.003159806737691054 0 0)
(-0.003144580457189312 0 0)
(-0.00313197647237125 0 0)
(-0.003123830207082688 0 0)
(-0.003123883979490455 0 0)
(-0.003125374363409363 0 0)
(-0.00313394611051014 0 0)
(-0.003152600135519412 0 0)
(-0.003176170862029854 0 0)
(-0.003206075885103743 0 0)
(-0.003242577633995134 0 0)
(-0.003283254433787747 0 0)
(-0.00332621683300363 0 0)
(-0.003371046301475196 0 0)
(-0.003414358458117221 0 0)
(-0.003458959447431348 0 0)
(-0.003503239735352365 0 0)
(-0.003545510183671695 0 0)
(-0.003590537675584984 0 0)
(-0.003627948208362157 0 0)
(-0.003670729737565505 0 0)
(-0.003709162049843302 0 0)
(-0.003745981931076685 0 0)
(-0.003778574067235273 0 0)
(-0.003809476118622331 0 0)
(-0.003835579666543593 0 0)
(-0.003857574428299146 0 0)
(-0.003872988575026273 0 0)
(-0.003885567173481578 0 0)
(-0.003885452606661255 0 0)
(-0.003884694681181425 0 0)
(-0.003874447003705238 0 0)
(-0.003856005083526045 0 0)
(-0.003832642571466531 0 0)
(-0.003804040725568015 0 0)
(-0.003773272000036543 0 0)
(-0.003742755800325436 0 0)
(-0.003710830210703395 0 0)
(-0.003679313793523442 0 0)
(-0.003649931356341778 0 0)
(-0.003617586419211282 0 0)
(-0.003592083097946502 0 0)
(-0.003554147154502784 0 0)
(-0.003534721038434713 0 0)
(-0.003508357372453598 0 0)
(-0.003486481623982496 0 0)
(-0.003463817346751176 0 0)
(-0.003448828352761973 0 0)
(-0.003434211297078617 0 0)
(-0.00342642816593849 0 0)
(-0.003421444052759899 0 0)
(-0.003426253697415112 0 0)
(-0.003428522166757892 0 0)
(-0.003446330705657915 0 0)
(-0.003465170721970539 0 0)
)
;

boundaryField
{
    inlet
    {
        type            calculated;
        value           uniform (-0.0006500873514116996 0 0);
    }
    outlet
    {
        type            calculated;
        value           uniform (-0.003479951916962147 0 0);
    }
    frontAndBack
    {
        type            empty;
    }
}


// ************************************************************************* //
