/*--------------------------------*- C++ -*----------------------------------*\
| =========                 |                                                 |
| \\      /  F ield         | OpenFOAM: The Open Source CFD Toolbox           |
|  \\    /   O peration     | Version:  v2012                                 |
|   \\  /    A nd           | Website:  www.openfoam.com                      |
|    \\/     M anipulation  |                                                 |
\*---------------------------------------------------------------------------*/
FoamFile
{
    version     2.0;
    format      ascii;
    class       volScalarField;
    location    "0.005";
    object      p;
}
// * * * * * * * * * * * * * * * * * * * * * * * * * * * * * * * * * * * * * //

dimensions      [1 -1 -2 0 0 0 0];


internalField   nonuniform List<scalar> 
1000
(
101310.9392739776
101313.5745402498
101306.8358618449
101301.5414987005
101295.7083070324
101290.4671061482
101285.9470463578
101282.0768907279
101278.7569466235
101276.5353383931
101275.9512628537
101275.9680641817
101276.3345550266
101277.34918832
101279.3274143984
101282.332019428
101286.2492822393
101290.9022935795
101296.1448738143
101301.8755823209
101308.0104838023
101314.4587168023
101321.1139515782
101327.8541711559
101334.5449305816
101341.0501437293
101347.2533529342
101353.084422463
101358.5352568265
101363.6190391172
101368.1802946871
101371.5673046182
101373.0163376882
101373.1826780954
101373.1123487923
101372.8485453418
101372.1077200018
101370.654807107
101368.2813014965
101364.8920599999
101360.5270189187
101355.3395196846
101349.5336423819
101343.3006413146
101336.7891806945
101330.1127134256
101323.3716168097
101316.6684751188
101310.1080698177
101303.7795603115
101297.7275184295
101291.9496919232
101286.4974944414
101281.7449576965
101278.5845212795
101277.508324578
101277.4351362402
101277.476185286
101277.737027075
101278.3794863551
101279.6290258651
101281.6770814225
101284.6600407374
101288.6213755414
101293.4995998582
101299.1425546667
101305.3458532793
101311.9002538045
101318.6269099818
101325.3881203089
101332.0810220887
101338.6334126251
101345.0092398721
101351.2071470985
101357.2212687123
101362.9233737093
101367.8251846163
101370.9812769692
101372.0193513067
101372.0952404833
101372.0386335146
101371.8333283622
101371.2867413365
101370.2244886603
101368.4611953126
101365.8458378112
101362.2880398937
101357.7818873405
101352.4119801049
101346.3391084135
101339.7705828477
101332.9236963456
101325.9904726797
101319.1121979605
101312.3704078262
101305.7936167946
101299.3766990257
101293.1314334954
101287.2292466533
101282.2701564319
101279.2683158418
101278.3939959936
101278.3496151015
101278.3859669906
101278.593946808
101279.0992584504
101280.0780929735
101281.6958727564
101284.0979337158
101287.3838709093
101291.5879769909
101296.6661613866
101302.4966927568
101308.8985610798
101315.6629755643
101322.5877938484
101329.50746614
101336.3153559951
101342.9718305203
101349.4841108985
101355.8395715167
101361.8624398746
101366.97348568
101370.1773626774
101371.2026385804
101371.280983851
101371.2383986542
101371.0804733883
101370.6535797934
101369.8140667373
101368.4018714379
101366.270432891
101363.3038388457
101359.4375856397
101354.6736459078
101349.0866691151
101342.8190897606
101336.0627131068
101329.0265699762
101321.8987028668
101314.8159155743
101307.85285311
101301.0378095776
101294.4153286917
101288.2052160973
101283.0654782279
101280.0146490127
101279.1358437669
101279.0861342208
101279.113508211
101279.2775935723
101279.6851035589
101280.4835610786
101281.8172946408
101283.8231557939
101286.6125172836
101290.2552654016
101294.7645678837
101300.0880997349
101306.1105674234
101312.6680539203
101319.5713572866
101326.6358262041
101333.7131933127
101340.7127697953
101347.5925682545
101354.2996189983
101360.6289757812
101365.9850823227
101369.3695697096
101370.4951841158
101370.595296952
101370.5646724761
101370.4462885042
101370.1095307935
101369.4314331087
101368.270516099
101366.4907245264
101363.9725957653
101360.6290896911
101356.4194614066
101351.3598316723
101345.528152393
101339.0593086567
101332.1266966603
101324.9131318344
101317.5807979194
101310.25133198
101303.0091470094
101295.9559098808
101289.3673497615
101283.9487278681
101280.7323230075
101279.7792653735
101279.7139241621
101279.7344523231
101279.86520339
101280.1972763689
101280.8588840089
101281.9783936125
101283.6829799755
101286.0847165729
101289.2681005219
101293.2767282053
101298.1031086952
101303.6852573973
101309.9111275424
101316.6307286525
101323.6769727283
101330.8935442138
101338.1585938192
101345.3845498621
101352.4706116147
101359.1734450134
101364.8764004533
101368.5598055957
101369.8626954976
101370.0015364084
101369.9798991568
101369.8905850001
101369.6219094251
101369.0672439535
101368.1003891768
101366.5956504992
101364.4356284308
101361.5238489725
101357.7963569421
101353.2322134571
101347.8614747798
101341.7667939478
101335.074626434
101327.9368768677
101320.5087745286
101312.9303237386
101305.3241362234
101297.8412301374
101290.8097850316
101284.9860130477
101281.4614288958
101280.3605486239
101280.2691878987
101280.2825263377
101280.3849497557
101280.6557402679
101281.2091269361
101282.1598249265
101283.6248473249
101285.7126452886
101288.5135085161
101292.088290845
101296.4586650019
101301.6015581521
101307.4485448355
101313.890909448
101320.7927560568
101328.0119204532
101335.4198554163
101342.9039140105
101350.3297917549
101357.4265663895
101363.563642351
101367.6796466958
101369.2627052616
101369.4681114842
101369.454448864
101369.3898058535
101369.1765251535
101368.7209671283
101367.9092079732
101366.625838426
101364.7585946233
101362.2082278887
101358.8979151314
101354.7828291766
101349.8587318668
101344.16638154
101337.7885293958
101330.8397235234
101323.4520430812
101315.761147272
101307.9040830686
101300.0599807302
101292.5883122978
101286.2744136101
101282.2847720013
101280.9162009034
101280.7716404297
101280.779567559
101280.8585413164
101281.078184024
101281.5412241465
101282.3519883616
101283.6190236531
101285.4461153587
101287.9246517553
101291.124523902
101295.0858832862
101299.8132724113
101305.2724630015
101311.3911892491
101318.066696387
101325.180307046
101332.6119905638
101340.2421588458
101347.9218281185
101355.3732720881
101361.9777071436
101366.6454882593
101368.6476332816
101368.9743675186
101368.9692233321
101368.9260088557
101368.7592042794
101368.3869313998
101367.7045432068
101366.6054112284
101364.9830759591
101362.7389595925
101359.7897912978
101356.0758198507
101351.5688665219
101346.2776977579
101340.2484035624
101333.5598551877
101326.3157274217
101318.6354783121
101310.6538259145
101302.556549219
101294.703863302
101287.8676419519
101283.2724093703
101281.4878685221
101281.2430426919
101281.2444616947
101281.3022612201
101281.4768026071
101281.8616435615
101282.5527671207
101283.6513990118
101285.2564503076
101287.4583784283
101290.3317524428
101293.9284535635
101298.2721718575
101303.354204753
101309.131924566
101315.5327056181
101322.4633536418
101329.8196087442
101337.4867734932
101345.3165387968
101353.0441131037
101360.0930425808
101365.388016373
101367.9632636371
101368.4999574769
101368.5129679437
101368.4862665986
101368.3592120345
101368.0584690559
101367.4872426947
101366.546048943
101365.1337204736
101363.1536787218
101360.5197744789
101357.1631823202
101353.0394170638
101348.1336677143
101342.4630571672
101336.0758502732
101329.0479281329
101321.477695482
101313.4872782335
101305.2532479593
101297.1119177564
101289.7803372876
101284.490152694
101282.1250582191
101281.6983032302
101281.6904979777
101281.7284539914
101281.8628134757
101282.1780076254
101282.7635465194
101283.7149183857
101285.1265526724
101287.0869840092
101289.6728957208
101292.9435853076
101296.9359341375
101301.6599038646
101307.0960286221
101313.1970703972
101319.8934880594
101327.0989291296
101334.7101457633
101342.5896663026
101350.4988762456
101357.9262341003
101363.8613041602
101367.1450272899
101368.0210103557
101368.0756133944
101368.0602930616
101367.9673351364
101367.7293456257
101367.2556883844
101366.4529383177
101365.2244217413
101363.4759748751
101361.1204886602
101358.0836909316
101354.3102338189
101349.7684900576
101344.4534519385
101338.3882948859
101331.624210073
101324.2381643312
101316.3347855787
101308.0719103124
101299.7475346351
101291.9958376351
101285.9901046004
101282.8878578937
101282.155125377
101282.1197567334
101282.1443491988
101282.2427056076
101282.4963162564
101282.9876722246
101283.8078075211
101285.0473980204
101286.7930205956
101289.1222870777
101292.0992527978
101295.7698325011
101300.1574781225
101305.2604592167
101311.0520269395
101317.4828906647
101324.4839663132
101331.9662671169
101339.8083635915
101347.8037426681
101355.5167174744
101362.0453768609
101366.1290245842
101367.5052896628
101367.6499172373
101367.6428314681
101367.579292523
101367.3964637477
101367.0092670649
101366.3291373898
101365.2634887651
101363.7206731869
101361.6138000156
101358.8655682505
101355.4133152088
101351.2132210633
101346.2436465916
101340.5080889173
101334.0368110405
101326.8864444452
101319.1426847304
101310.9412865975
101302.5369471327
101294.4683153583
101287.79442833
101283.8443471326
101282.643282487
101282.5389465616
101282.5543117103
101282.6227294686
101282.821817312
101283.2284570869
101283.9299205755
101285.0138669242
101286.5653124068
101288.6622449425
101291.371859937
101294.7464686503
101298.8193033765
101303.6017660966
101309.0830869056
101315.2311457445
101321.9928947122
101329.2935837052
101337.0284033334
101345.0233038667
101352.9189326194
101359.9465498448
101364.8535966518
101366.9044900349
101367.2320330514
101367.236777668
101367.193996639
101367.0574775826
101366.745059402
101366.1737017903
101365.2540327893
101363.8967076911
101362.0153888567
101359.5308236917
101356.3749842742
101352.4951204457
101347.8575298706
101342.450723165
101336.2874750844
101329.4061861783
101321.8749299079
101313.8076152658
101305.4153006754
101297.1398936358
101289.8940365971
101285.0547397196
101283.2060919367
101282.9559968401
101282.9594395968
101283.0048679333
101283.1550563892
101283.4854017855
101284.0794051568
101285.022161056
101286.3971050297
101288.2822804741
101290.7467993575
101293.8472136027
101297.6240878208
101302.0993960861
101307.2750384783
101313.1323058151
101319.6320216408
101326.7140682194
101334.2904698743
101342.215670909
101350.19838794
101357.6080226755
101363.2890073615
101366.1545795245
101366.80149635
101366.8285483191
101366.8058632434
101366.7085203565
101366.463350233
101365.9903332604
101365.2032024041
101364.0144365926
101362.3383621604
101360.0948541908
101357.2128129014
101353.6333289757
101349.3133152347
101344.2294488321
101338.3808073254
101331.7901957021
101324.5082537816
101316.6276784744
101308.3222364453
101299.9487894423
101292.262421853
101286.5686605007
101283.9011464277
101283.3748258749
101283.3622625277
101283.3861279524
101283.4976716638
101283.7611670619
101284.2585697754
101285.0723878778
101286.2848236737
101287.9739285391
101290.2106054591
101293.055027635
101296.5532734523
101300.7351030402
101305.612547404
101311.1783679568
101317.4049375375
101324.2440791905
101331.6229778792
101339.4220129241
101347.4074166857
101355.0741025721
101361.4211332508
101365.1855942987
101366.3346394725
101366.4352643613
101366.4204429626
101366.3555288465
101366.1661185449
101365.7789022507
101365.1099481853
101364.0740539302
101362.5865395625
101360.5665975411
101357.9403845661
101354.6443328063
101350.6285751883
101345.8602517533
101340.326447479
101334.0370188823
101327.0287772979
101319.3754508037
101311.2161395222
101302.834314915
101294.8397359578
101288.3934813747
101284.8008659476
101283.8253547908
101283.7584880359
101283.7727946466
101283.8488252779
101284.053345516
101284.4631923646
101285.1591116998
101286.2222603447
101287.7306405177
101289.7560578258
101292.3610784321
101295.5962249132
101299.4976369552
101304.0851041302
101309.3604860557
101315.3068322211
101321.8876597359
101329.0430566889
101336.674026018
101344.5946897921
101352.4094211653
101359.2882346874
101363.9466527813
101365.7760453588
101366.0365736816
101366.0339363146
101365.9928084029
101365.8527635148
101365.5426323303
101364.9815239403
101364.0858490201
101362.771792277
101360.9584743737
101358.5705249798
101355.5409009743
101351.8144303159
101347.3512408459
101342.1291964018
101336.146476904
101329.4264812195
101322.0268106201
101314.0593870527
101305.7476599515
101297.5727819358
101290.5156846157
101285.9688400121
101284.3480926562
101284.1539095505
101284.1564482025
101284.2089436549
101284.3629311275
101284.6958034131
101285.2848707149
101286.2102889929
101287.5499714249
101289.3768316992
101291.7558672326
101294.7414700274
101298.3749693031
101302.6825620832
101307.6737474919
101313.3402218434
101319.6547046148
101326.5677951209
101333.9972027676
101341.7940455877
101349.6510211395
101356.9080967559
101362.3912277404
101365.0767619903
101365.6549196122
101365.6768040502
101365.6568548806
101365.5683363164
101365.3483891673
101364.9266886922
101364.2301349303
101363.187517211
101361.7335348626
101359.8129998005
101357.3854383229
101354.4301097279
101350.9516385912
101346.9871473958
101342.6180815392
101337.9958178577
101333.399453694
101329.3307098315
101326.4965232641
101325.2600410396
101325.0154144439
101325.0002033634
101325.000000399
101325.0000000009
101325.0000000009
101325.0000000009
101325.000000001
101325.0000000011
101325.0000000013
101325.0000000014
101325.0000000015
101325.0000000017
101325.0000000019
101325.000000002
101325.0000000021
101325.0000000022
101325.0000000022
101325.0000000021
101325.0000000022
101325.0000000021
101325.0000000022
101325.0000000022
101325.0000000023
101325.0000000023
101325.0000000023
101325.0000000023
101325.0000000022
101325.0000000022
101325.0000000022
101325.0000000022
101325.0000000021
101325.0000000022
101325.0000000022
101325.0000000022
101325.0000000021
101325.0000000022
101325.0000000022
101325.0000000022
101325.0000000022
101325.0000000022
101325.0000000022
101325.0000000023
101325.0000000023
101325.0000000022
101325.0000000022
101325.0000000022
101325.0000000021
101325.0000000022
101325.0000000022
101325.0000000023
101325.0000000022
101325.0000000022
101325.0000000022
101325.0000000022
101325.0000000023
101325.0000000022
101325.0000000022
101325.0000000022
101325.0000000023
101325.0000000023
101325.0000000022
101325.0000000023
101325.0000000023
101325.0000000022
101325.0000000022
101325.0000000022
101325.0000000022
101325.0000000022
101325.0000000022
101325.0000000022
101325.0000000022
101325.0000000022
101325.0000000022
101325.0000000022
101325.0000000022
101325.0000000022
101325.0000000022
101325.0000000022
101325.0000000022
101325.0000000022
101325.0000000023
101325.0000000023
101325.0000000023
101325.0000000024
101325.0000000024
101325.0000000023
101325.0000000023
101325.0000000023
101325.0000000023
101325.0000000023
101325.0000000024
101325.0000000023
101325.0000000023
101325.0000000023
101325.0000000023
101325.0000000022
101325.0000000023
101325.0000000023
101325.0000000023
101325.0000000024
101325.0000000023
101325.0000000023
101325.0000000023
101325.0000000023
101325.0000000023
101325.0000000023
101325.0000000023
101325.0000000023
101325.0000000023
101325.0000000023
101325.0000000022
101325.0000000022
101325.0000000022
101325.0000000022
101325.0000000021
101325.0000000021
101325.0000000021
101325.000000002
101325.000000002
101325.000000002
101325.0000000019
101325.0000000019
101325.000000002
101325.000000002
101325.0000000019
101325.000000002
101325.0000000019
101325.0000000019
101325.000000002
101325.000000002
101325.000000002
101325.000000002
101325.0000000021
101325.0000000022
101325.0000000022
101325.0000000022
101325.0000000022
101325.0000000022
101325.0000000023
101325.0000000023
101325.0000000023
101325.0000000023
101325.0000000022
101325.0000000023
101325.0000000023
101325.0000000024
101325.0000000023
101325.0000000023
101325.0000000023
101325.0000000023
101325.0000000024
101325.0000000024
101325.0000000024
101325.0000000025
101325.0000000024
101325.0000000024
101325.0000000025
101325.0000000025
101325.0000000024
101325.0000000025
101325.0000000025
101325.0000000025
101325.0000000025
101325.0000000024
101325.0000000024
101325.0000000024
101325.0000000024
101325.0000000024
101325.0000000024
101325.0000000024
101325.0000000025
101325.0000000024
101325.0000000025
101325.0000000025
101325.0000000025
101325.0000000025
101325.0000000026
101325.0000000026
101325.0000000026
101325.0000000026
101325.0000000026
101325.0000000026
101325.0000000026
101325.0000000026
101325.0000000026
101325.0000000026
101325.0000000027
101325.0000000027
101325.0000000027
101325.0000000027
101325.0000000028
101325.0000000027
101325.0000000027
101325.0000000027
101325.0000000027
101325.0000000027
101325.0000000027
101325.0000000027
101325.0000000027
101325.0000000028
101325.0000000027
101325.0000000026
101325.0000000027
101325.0000000028
101325.0000000027
101325.0000000026
101325.0000000026
101325.0000000026
101325.0000000026
101325.0000000026
101325.0000000027
101325.0000000026
101325.0000000027
101325.0000000026
101325.0000000026
101325.0000000026
101325.0000000026
101325.0000000026
101325.0000000025
101325.0000000025
101325.0000000026
101325.0000000026
101325.0000000026
101325.0000000025
101325.0000000025
101325.0000000025
101325.0000000025
101325.0000000025
101325.0000000025
101325.0000000025
101325.0000000024
101325.0000000024
101325.0000000024
101325.0000000025
101325.0000000025
101325.0000000025
101325.0000000025
101325.0000000023
101325.0000000023
101325.0000000023
101325.0000000024
101325.0000000023
101325.0000000023
101325.0000000023
101325.0000000023
101325.0000000023
101325.0000000023
101325.0000000023
101325.0000000023
101325.0000000024
101325.0000000023
101325.0000000023
101325.0000000024
101325.0000000024
101325.0000000024
101325.0000000024
101325.0000000024
101325.0000000024
101325.0000000024
101325.0000000024
101325.0000000024
101325.0000000024
101325.0000000024
101325.0000000024
101325.0000000025
101325.0000000025
101325.0000000025
101325.0000000025
101325.0000000025
101325.0000000025
101325.0000000025
101325.0000000026
101325.0000000026
101325.0000000026
101325.0000000026
101325.0000000026
101325.0000000026
101325.0000000026
101325.0000000026
101325.0000000026
101325.0000000026
101325.0000000026
101325.0000000026
101325.0000000026
101325.0000000026
101325.0000000026
101325.0000000026
101325.0000000026
101325.0000000026
101325.0000000025
101325.0000000025
101325.0000000025
101325.0000000025
101325.0000000025
101325.0000000024
101325.0000000024
101325.0000000024
101325.0000000024
101325.0000000024
101325.0000000024
101325.0000000024
)
;

boundaryField
{
    inlet
    {
        type            uniformFixedValue;
        uniformValue    sine;
        uniformValueCoeffs
        {
            frequency       constant 3000;
            scale           constant 50;
            level           constant 101325;
        }
        value           uniform 101323.6440830864;
    }
    outlet
    {
        type            waveTransmissive;
        gamma           1.4;
        fieldInf        101325;
        lInf            2.25;
        value           uniform 101325.0000000024;
    }
    frontAndBack
    {
        type            empty;
    }
}


// ************************************************************************* //
