/*--------------------------------*- C++ -*----------------------------------*\
| =========                 |                                                 |
| \\      /  F ield         | OpenFOAM: The Open Source CFD Toolbox           |
|  \\    /   O peration     | Version:  v2012                                 |
|   \\  /    A nd           | Website:  www.openfoam.com                      |
|    \\/     M anipulation  |                                                 |
\*---------------------------------------------------------------------------*/
FoamFile
{
    version     2.0;
    format      ascii;
    class       volScalarField;
    location    "0.005";
    object      pMean;
}
// * * * * * * * * * * * * * * * * * * * * * * * * * * * * * * * * * * * * * //

dimensions      [1 -1 -2 0 0 0 0];


internalField   nonuniform List<scalar> 
1000
(
101325.0307882511
101325.0081578562
101325.0353862165
101325.0609740619
101325.0983479765
101325.1432901927
101325.1945197434
101325.2535415381
101325.3169853543
101325.3855613883
101325.4558596892
101325.5266318389
101325.5968725696
101325.6664529889
101325.7337646791
101325.7978378706
101325.8568531813
101325.9100368396
101325.9559782631
101325.9943065564
101326.0239659448
101326.0447840161
101326.0560198952
101326.0578034821
101326.0497432331
101326.0323189386
101326.0055452751
101325.9702217958
101325.9265876654
101325.8754599309
101325.8170883521
101325.7528017208
101325.6845853068
101325.6153575302
101325.5459926415
101325.4769300328
101325.4084998755
101325.3415812367
101325.2772713063
101325.2169934539
101325.1621383385
101325.1140514496
101325.0737619097
101325.0420760713
101325.0195002923
101325.0063964095
101325.002929234
101325.0091596887
101325.0249498916
101325.0500499551
101325.0840840039
101325.1266902182
101325.1774645872
101325.2357906853
101325.300169052
101325.3678797645
101325.4363756818
101325.5048625112
101325.5730971306
101325.6408029591
101325.7071418633
101325.7712960197
101325.8318726748
101325.8876679819
101325.9371396608
101325.9792349137
101326.0128018434
101326.0373306576
101326.0522412929
101326.0575445181
101326.0530786702
101326.0391444063
101326.0158001685
101325.9834602391
101325.9422247543
101325.8925485698
101325.8349312462
101325.7711953669
101325.7041289518
101325.636397606
101325.5686139134
101325.5010411199
101325.433957479
101325.3679713908
101325.3039151592
101325.2429049825
101325.1861977386
101325.1351702116
101325.0911199456
101325.0552120003
101325.028317234
101325.0110378316
101325.0036458178
101325.0062058369
101325.0185720618
101325.0405514031
101325.0718922031
101325.1124057528
101325.1617701608
101325.2192169836
101325.2827826577
101325.349358348
101325.4165378532
101325.4837108914
101325.5506744966
101325.6172254246
101325.68270047
101325.7464613931
101325.8073666465
101325.8643658112
101325.9160315813
101325.9612019638
101325.9985586143
101326.0272593813
101326.0464686586
101326.0559235497
101326.0553550628
101326.044968963
101326.0248083682
101325.9952165539
101325.9562647115
101325.9083723518
101325.8521471005
101325.7895948619
101325.7237043635
101325.657143474
101325.5905236257
101325.5240772315
101325.4579993685
101325.3927955198
101325.3291182236
101325.2679092513
101325.210236308
101325.1573723981
101325.1105760854
101325.0711317372
101325.0401043578
101325.0183951903
101325.0065494528
101325.0048973151
101325.0134525594
101325.0321426912
101325.0607500835
101325.0991003309
101325.1467953152
101325.2029590844
101325.2654096515
101325.3309187329
101325.3970288268
101325.4631473826
101325.5290954797
101325.5947159511
101325.6594596503
101325.7228016543
101325.7837697364
101325.8414555224
101325.8945647842
101325.941988989
101325.982383987
101326.0147737251
101326.0381206131
101326.051892873
101326.0555810868
101326.0491602209
101326.0325415679
101326.0059801878
101325.9695439794
101325.9236842297
101325.8690883574
101325.8078530752
101325.7430618797
101325.6774997622
101325.6118576535
101325.5463584891
101325.4811363944
101325.4166205651
101325.3533436179
101325.2921166654
101325.233860037
101325.1797269396
101325.1308870731
101325.0886221005
101325.0540633573
101325.028288599
101325.0120685802
101325.006009375
101325.0103742728
101325.0253049267
101325.0507146755
101325.0864850271
101325.1321884768
101325.1868491034
101325.2481299781
101325.3126562277
101325.377846351
101325.443066393
101325.5081412615
101325.5729627592
101325.6370524656
101325.6999806629
101325.7608973451
101325.8190119707
101325.873155113
101325.922293591
101325.9651272888
101326.0006317923
101326.0276661592
101326.0455126033
101326.0534423431
101326.0511955431
101326.038476832
101326.0153852877
101325.9819038803
101325.9384538907
101325.8857538822
101325.8259370278
101325.7621973294
101325.6975086498
101325.6327142534
101325.5680388279
101325.5035728438
101325.4396863593
101325.3768152679
101325.3156730002
101325.2570531912
101325.20200196
101325.1515909528
101325.10705406
101325.0695297637
101325.0401774571
101325.0199188231
101325.0095730921
101325.0096421013
101325.0205078326
101325.0422776675
101325.0749724604
101325.1182224031
101325.1710482241
101325.2310283709
101325.2946107571
101325.3589879033
101325.4234111378
101325.4877179271
101325.5518253046
101325.6153219872
101325.6778437191
101325.7386426847
101325.7970237608
101325.8519297938
101325.9024076819
101325.9472230143
101325.9853506035
101326.0156109943
101326.0371640098
101326.0491257752
101326.0510248807
101326.0423708478
101326.0230651964
101325.9929559779
101325.9523555263
101325.9019228161
101325.8437404876
101325.7810822808
101325.7171984401
101325.6531653412
101325.589231773
101325.5254524385
101325.4621489171
101325.3996851013
101325.3386883841
101325.2798537956
101325.224126768
101325.1724869062
101325.1261021573
101325.0860846763
101325.0536224229
101325.0297261481
101325.015364002
101325.0112313372
101325.0179287947
101325.0357731679
101325.0649670364
101325.10527771
101325.1558256207
101325.2142322585
101325.2768141817
101325.3404377612
101325.4041393242
101325.4677497978
101325.5312023487
101325.5941496393
101325.6562720547
101325.7169152599
101325.7754542067
101325.8309372637
101325.8824796269
101325.9289257236
101325.9692700207
101326.0023361689
101326.0272087969
101326.0429049128
101326.0487859643
101326.0441966297
101326.0288428524
101326.0024205957
101325.965079165
101325.9173455533
101325.8611268953
101325.7996873269
101325.7365870063
101325.6732568763
101325.6100080671
101325.5468687747
101325.4841168122
101325.4220575927
101325.3612484146
101325.3022992176
101325.2460711806
101325.1934557887
101325.1455544886
101325.1034314575
101325.0682746969
101325.0411353672
101325.0230813568
101325.0149490992
101325.0175204062
101325.0313008777
101325.0566840635
101325.0936135753
101325.1414071808
101325.1978721101
101325.2593146338
101325.3221974903
101325.3852271241
101325.4481825905
101325.5110224094
101325.5734431473
101325.6351736962
101325.6956280463
101325.7542490555
101325.8101689241
101325.8625718185
101325.9103752144
101325.9526083207
101325.9881172666
101326.0159486457
101326.0350611256
101326.0446930314
101326.0440620996
101326.0327022263
101326.0101636464
101325.9764139937
101325.9317982291
101325.8779408089
101325.8179554326
101325.7556698244
101325.6930076827
101325.6304010738
101325.5678751999
101325.5056515366
101325.4440049735
101325.3834107855
101325.3244298993
101325.2678258182
101325.2144351179
101325.165269576
101325.1213628893
101325.0838603425
101325.0538449526
101325.0324231343
101325.0205473272
101325.0191187515
101325.0288172138
101325.0501946154
101325.0834012352
101325.1279901245
101325.1820958687
101325.2421596418
101325.3042726808
101325.3666544633
101325.4289860607
101325.4912309103
101325.5531425323
101325.61447413
101325.6747165355
101325.7333537896
101325.7896071802
101325.8427075522
101325.8916546472
101325.9355061691
101325.9731527765
101326.0036187085
101326.0258408237
101326.0389674105
101326.0421271727
101326.0347128515
101326.0161464087
101325.9862216236
101325.9450760321
101325.8939929146
101325.835777589
101325.7744151027
101325.7124032637
101325.6504195891
101325.5884848992
101325.5267886653
101325.4655579542
101325.4052167732
101325.346262081
101325.2893932072
101325.2353761631
101325.1851602997
101325.1397243512
101325.1001809481
101325.0676053695
101325.0431311156
101325.027773019
101325.0225287293
101325.0282031451
101325.0454941643
101325.0747366118
101325.1157450089
101325.1670495198
101325.2254108629
101325.2866588283
101325.3484093133
101325.4101333429
101325.4718007901
101325.533201943
101325.5941300015
101325.6541268221
101325.7127297979
101325.7692233967
101325.8228951694
101325.8728076846
101325.9180606243
101325.9575845592
101325.9904053105
101326.0154527592
101326.0318190943
101326.0385715215
101326.0349928708
101326.0204030773
101325.9944362992
101325.9570345254
101325.9091080627
101325.8530456834
101325.7927874707
101325.7314430087
101325.6700619872
101325.6087116674
101325.5475387476
101325.4867385765
101325.426678026
101325.367809073
101325.3107618635
101325.2562506707
101325.2051542312
101325.1584087901
101325.1170763107
101325.0822231275
101325.0549773397
101325.0364003617
101325.027543556
101325.0293153208
101325.0425216974
101325.0676695814
101325.1048137042
101325.1529093077
101325.2091717463
101325.2693809639
101325.3304900858
101325.3916200927
101325.4527138844
101325.513601131
101325.5741096262
101325.6338289936
101325.6923468208
101325.7490011303
101325.8031366342
101325.853865735
101325.9003394035
101325.9415182754
101325.9764541958
101326.0040676412
101326.0234351258
101326.0335653971
101326.0336817618
101326.0229997107
101326.00104536
101325.9675583941
101325.9231284152
101325.8696270408
101325.8107618247
101325.7501242206
101325.689337616
101325.6285559775
101325.567910093
101325.5075535236
101325.4478092508
101325.3890791728
101325.3319372703
101325.2770418309
101325.2252135848
101325.1773391618
101325.134435974
101325.0975451734
101325.0677843499
101325.0462333804
101325.0339800051
101325.0320006865
101325.0411906488
101325.0621958949
101325.0952886513
101325.1398240922
101325.1935621544
101325.2524696711
101325.3128950801
101325.3734384593
101325.4339556126
101325.4943307985
101325.5543947026
101325.6138161022
101325.6721911784
101325.7289455779
101325.7834363104
101325.8348645489
101325.8823878668
101325.9250431494
101325.9618681594
101325.9918319208
101326.0139619683
101326.0272756362
101326.0309070274
101326.0240409879
101326.0060661961
101325.9765995404
101325.9358928335
101325.8853542495
101325.8282236478
101325.7684302608
101325.7082281906
101325.648024124
101325.5879111978
101325.5280182592
101325.4686206265
101325.410078026
101325.3529104095
101325.2977271689
101325.2452932687
101325.1964485953
101325.1521646366
101325.1134519934
101325.0814074275
101325.0571135094
101325.0416776121
101325.0361223002
101325.0414094505
101325.0582949364
101325.0872350889
101325.1279379309
101325.1787253982
101325.2359745188
101325.2956158906
101325.355577455
101325.4155313729
101325.4753744256
101325.5349909821
101325.5940647041
101325.6522634636
101325.7090332543
101325.76380591
101325.8158037132
101325.8642537483
101325.9082053442
101325.9467483291
101325.9788432144
101326.0035411881
101326.019821235
101326.0268051939
101326.0236047756
101326.009551999
101325.9841165505
101325.9473197412
101325.9000859541
101325.8451168581
101325.786352785
101325.7267589403
101325.6671129475
101325.6075320883
101325.5481174718
101325.4890928472
101325.4307901001
101325.3736627971
101325.3182889865
101325.2653629639
101325.2156964135
101325.1701950893
101325.1298561572
101325.0957296546
101325.0689122618
101325.0504944326
101325.0415508504
101325.0430691791
101325.0559150839
101325.0806678729
101325.1173576109
101325.1648136572
101325.2200025292
101325.2786766568
101325.3380479238
101325.3974260335
101325.4567491176
101325.5158788576
101325.5745989571
101325.6325554448
101325.6893028804
101325.7442541161
101325.7967408055
101325.8459679861
101325.8910870713
101325.9311543289
101325.9652152255
101325.9922649168
101326.0113399719
101326.0214778152
101326.0218162901
101326.0115635585
101325.9901478443
101325.9573263754
101325.9136859422
101325.8612742253
101325.8038495534
101325.7449050559
101325.6858342967
101325.6267849619
101325.5678707703
101325.5092435412
101325.4512255005
101325.3941938147
101325.3387096893
101325.2853896291
101325.2350280315
101325.1884584259
101325.1466681664
101325.1106507197
101325.0815128402
101325.0603160927
101325.0481747263
101325.0460856411
101325.055003591
101325.0756026907
101325.1081736503
101325.1519868422
101325.2046670109
101325.2621013719
101325.3208397922
101325.3796533253
101325.4384380007
101325.4970817784
101325.5553980906
101325.6130849766
101325.669727797
101325.7247975364
101325.7776557493
101325.8275635507
101325.8736945458
101325.9151516214
101325.9509869247
101325.9802246284
101326.0018855293
101326.0150132554
101326.0187028276
101326.0121372126
101325.9946498255
101325.9658636102
101325.9260185581
101325.8766037438
101325.8208744166
101325.7626930025
101325.7041395274
101325.64559676
101325.5871268199
101325.528863182
101325.4710346262
101325.4139731934
101325.3581151895
101325.3039961402
101325.2522398536
101325.2035412069
101325.1586421067
101325.1182999517
101325.0832473571
101325.0541395973
101325.0314787935
101325.0154854683
101325.0058627292
101325.001453243
101325.0001825283
101325.0000081721
101325.0000000876
101325.0000000009
101325.0000000008
101325.0000000008
101325.0000000008
101325.0000000008
101325.0000000008
101325.0000000008
101325.0000000008
101325.0000000008
101325.0000000008
101325.0000000008
101325.0000000008
101325.0000000008
101325.0000000008
101325.0000000008
101325.0000000009
101325.0000000008
101325.0000000009
101325.0000000009
101325.0000000009
101325.0000000009
101325.0000000009
101325.0000000009
101325.0000000009
101325.0000000009
101325.0000000009
101325.0000000008
101325.0000000009
101325.0000000008
101325.0000000009
101325.0000000008
101325.0000000009
101325.0000000009
101325.0000000009
101325.0000000009
101325.0000000009
101325.0000000009
101325.0000000009
101325.0000000009
101325.0000000009
101325.0000000009
101325.0000000009
101325.0000000009
101325.0000000009
101325.0000000009
101325.0000000009
101325.0000000009
101325.0000000009
101325.0000000009
101325.0000000009
101325.0000000009
101325.0000000009
101325.0000000009
101325.0000000009
101325.0000000009
101325.0000000009
101325.0000000009
101325.0000000009
101325.0000000009
101325.0000000009
101325.0000000009
101325.0000000009
101325.0000000009
101325.0000000009
101325.0000000009
101325.0000000009
101325.0000000009
101325.0000000009
101325.0000000009
101325.0000000009
101325.0000000009
101325.0000000009
101325.0000000009
101325.0000000009
101325.0000000009
101325.0000000009
101325.0000000009
101325.0000000009
101325.0000000009
101325.0000000009
101325.0000000009
101325.0000000009
101325.0000000009
101325.0000000009
101325.0000000009
101325.0000000009
101325.0000000009
101325.0000000009
101325.0000000009
101325.0000000009
101325.000000001
101325.000000001
101325.0000000009
101325.0000000009
101325.000000001
101325.000000001
101325.000000001
101325.000000001
101325.000000001
101325.000000001
101325.000000001
101325.000000001
101325.0000000009
101325.0000000009
101325.000000001
101325.000000001
101325.000000001
101325.000000001
101325.000000001
101325.000000001
101325.000000001
101325.000000001
101325.000000001
101325.000000001
101325.000000001
101325.000000001
101325.000000001
101325.000000001
101325.000000001
101325.000000001
101325.000000001
101325.000000001
101325.000000001
101325.000000001
101325.000000001
101325.000000001
101325.000000001
101325.000000001
101325.000000001
101325.000000001
101325.000000001
101325.000000001
101325.000000001
101325.0000000011
101325.0000000011
101325.000000001
101325.0000000011
101325.0000000011
101325.0000000011
101325.0000000011
101325.0000000011
101325.0000000011
101325.0000000011
101325.0000000011
101325.0000000011
101325.0000000011
101325.0000000011
101325.0000000011
101325.0000000011
101325.0000000011
101325.0000000011
101325.0000000011
101325.0000000011
101325.0000000011
101325.0000000011
101325.0000000011
101325.0000000011
101325.0000000011
101325.0000000011
101325.0000000011
101325.0000000011
101325.0000000011
101325.0000000011
101325.0000000011
101325.0000000011
101325.0000000011
101325.0000000011
101325.0000000011
101325.0000000011
101325.0000000011
101325.0000000011
101325.0000000011
101325.0000000011
101325.0000000011
101325.0000000011
101325.0000000011
101325.0000000011
101325.0000000011
101325.0000000011
101325.0000000011
101325.0000000011
101325.0000000011
101325.0000000011
101325.0000000011
101325.0000000011
101325.0000000011
101325.0000000011
101325.0000000011
101325.0000000011
101325.0000000011
101325.0000000011
101325.0000000011
101325.0000000012
101325.0000000011
101325.0000000011
101325.0000000011
101325.0000000011
101325.0000000011
101325.0000000011
101325.0000000011
101325.0000000011
101325.0000000011
101325.0000000012
101325.0000000011
101325.0000000011
101325.0000000011
101325.0000000012
101325.0000000012
101325.0000000012
101325.0000000012
101325.0000000011
101325.0000000012
101325.0000000012
101325.0000000012
101325.0000000012
101325.0000000012
101325.0000000012
101325.0000000012
101325.0000000012
101325.0000000012
101325.0000000012
101325.0000000012
101325.0000000012
101325.0000000012
101325.0000000012
101325.0000000012
101325.0000000013
101325.0000000013
101325.0000000012
101325.0000000012
101325.0000000013
101325.0000000012
101325.0000000012
101325.0000000013
101325.0000000012
101325.0000000012
101325.0000000013
101325.0000000013
101325.0000000013
101325.0000000013
101325.0000000013
101325.0000000013
101325.0000000014
101325.0000000014
101325.0000000014
101325.0000000014
101325.0000000013
101325.0000000014
101325.0000000014
101325.0000000013
101325.0000000013
101325.0000000013
101325.0000000013
101325.0000000013
101325.0000000013
101325.0000000013
101325.0000000013
101325.0000000013
101325.0000000013
101325.0000000013
101325.0000000013
101325.0000000014
101325.0000000014
101325.0000000014
101325.0000000014
101325.0000000014
101325.0000000014
101325.0000000014
101325.0000000014
101325.0000000014
101325.0000000014
101325.0000000014
101325.0000000014
101325.0000000014
101325.0000000014
101325.0000000014
101325.0000000014
101325.0000000014
101325.0000000014
101325.0000000014
101325.0000000014
101325.0000000014
101325.0000000014
101325.0000000014
101325.0000000015
101325.0000000015
101325.0000000015
101325.0000000015
101325.0000000015
101325.0000000014
101325.0000000015
101325.0000000015
101325.0000000015
101325.0000000015
101325.0000000015
101325.0000000015
101325.0000000015
101325.0000000015
101325.0000000015
)
;

boundaryField
{
    inlet
    {
        type            calculated;
        value           uniform 101325.0000000001;
    }
    outlet
    {
        type            calculated;
        value           uniform 101325.0000000015;
    }
    frontAndBack
    {
        type            empty;
    }
}


// ************************************************************************* //
