/*--------------------------------*- C++ -*----------------------------------*\
| =========                 |                                                 |
| \\      /  F ield         | OpenFOAM: The Open Source CFD Toolbox           |
|  \\    /   O peration     | Version:  v2012                                 |
|   \\  /    A nd           | Website:  www.openfoam.com                      |
|    \\/     M anipulation  |                                                 |
\*---------------------------------------------------------------------------*/
FoamFile
{
    version     2.0;
    format      ascii;
    class       volScalarField;
    location    "0.005";
    object      rho;
}
// * * * * * * * * * * * * * * * * * * * * * * * * * * * * * * * * * * * * * //

dimensions      [1 -3 0 0 0 0 0];


internalField   nonuniform List<scalar> 
1000
(
1.176296251028993
1.176319897616973
1.1762664002862
1.176223179723233
1.176172883436844
1.176127153943939
1.176088498363753
1.176056070211843
1.176028442014071
1.176009860010379
1.176004848371996
1.176004756154331
1.176007575254862
1.176015997575137
1.176032538533536
1.176057606376777
1.176090218679437
1.176128905861493
1.176172459466474
1.176220038427301
1.176270944393415
1.176324423214036
1.176379596420641
1.176435458981613
1.176490904278799
1.176544811382706
1.176596219947042
1.176644550951978
1.176689737470426
1.176731887732501
1.176769710598756
1.176797799948165
1.176809822946826
1.176811209843248
1.176810633407349
1.17680845037174
1.176802307323699
1.176790259042907
1.176770578070618
1.176742475559103
1.176706282796877
1.176663271210996
1.176615132669341
1.176563452576668
1.176509463186325
1.176454104835096
1.17639820952898
1.176342627702956
1.176288228162389
1.176235750315641
1.176185563938235
1.176137650560813
1.176092436755801
1.176053024535787
1.176026815146009
1.176017890230789
1.176017283284819
1.176017623759283
1.176019787012207
1.176025114984828
1.176035477393121
1.176052461754587
1.176077199004532
1.176110049453061
1.17615050295574
1.176197297428663
1.176248737728595
1.176303088539325
1.176358866699469
1.17641493032223
1.176470426480652
1.176524756531768
1.176577621616724
1.176629010565817
1.176678874826411
1.176726151319334
1.176766791931985
1.176792958619022
1.176801565086341
1.176802194262058
1.176801724940135
1.176800022793219
1.176795491149791
1.176786684210534
1.176772065018563
1.17675038136384
1.176720883780019
1.176683522996244
1.176639000150767
1.176588648090839
1.176534185439548
1.176477413695012
1.176419924957048
1.176362890730591
1.176306987150104
1.176252450732232
1.176199239047985
1.176147449850369
1.176098504819957
1.176057379987855
1.176032486007874
1.176025235317694
1.176024867265703
1.176025168726193
1.176026893491992
1.176031084018469
1.176039201434962
1.176052617539835
1.176072537508357
1.176099787126475
1.176134650567584
1.176176761937407
1.17622511147822
1.176278197900244
1.176334289632789
1.176391710352006
1.176449087278277
1.176505536225706
1.176560728633514
1.176614724446648
1.176667419052693
1.176717355194471
1.176759730684966
1.176786293617015
1.176794793998925
1.176795443542044
1.176795090473402
1.17679378114256
1.17679024184699
1.176783281590933
1.176771573291544
1.176753901767942
1.176729305886302
1.176697250668203
1.176657752224955
1.176611429198626
1.176559462256777
1.176503441476522
1.17644509986475
1.176385996522531
1.176327265796983
1.176269526688021
1.176213013882337
1.176158096836806
1.176106598439462
1.176063975639232
1.176038675458591
1.176031387587331
1.176030975346359
1.176031202353225
1.176032563100988
1.176035942555983
1.176042564106605
1.17605362463196
1.176070258971089
1.17609339061921
1.176123598968578
1.176160992995461
1.17620513852222
1.176255079193219
1.176309455485181
1.176366698287938
1.176425276334269
1.176483960159107
1.176541997808625
1.17659904118972
1.176654651180961
1.176707128651114
1.1767515360701
1.176779596490303
1.176788928780454
1.176789758795081
1.176789504888846
1.176788523383949
1.176785731381893
1.17678010938335
1.176770484385678
1.176755728328494
1.176734850674016
1.176707129638226
1.176672227205659
1.176630276781865
1.176581924395331
1.17652828813657
1.176470805467721
1.176410992046898
1.176350192567851
1.17628941561132
1.176229361165477
1.176170872356502
1.176116235829048
1.1760713004311
1.176044627211026
1.176036723583948
1.176036181710534
1.176036351944187
1.176037436248944
1.176040190103517
1.176045676759397
1.176054960737039
1.176069096642216
1.17608901380717
1.176115412825155
1.176148655049858
1.176188678130335
1.176234967789591
1.176286594613359
1.176342314587743
1.176400742000886
1.176460580562778
1.176520819864996
1.176580733791534
1.176639486602089
1.176695060870415
1.176742344180596
1.176772882977832
1.176783685052883
1.176784836156969
1.176784656761629
1.176783916267212
1.176781688718074
1.176777090069408
1.17676907400674
1.176756598380442
1.176738689779928
1.176714548237706
1.17668364334068
1.176645801266644
1.176601270954416
1.176550737416504
1.176495248866901
1.176436064589342
1.17637447151931
1.176311630443925
1.176248558022065
1.176186506562548
1.176128197626859
1.17607990258203
1.176050673746329
1.176041544256603
1.176040786606349
1.176040897215745
1.176041746599817
1.176043992240014
1.17604858142262
1.176056465456295
1.176068614686914
1.176085928425622
1.176109155329776
1.176138799898858
1.176175041660743
1.176217689041405
1.176266174357978
1.176319595836314
1.176376826360864
1.176436686910346
1.176498111457219
1.176560165896374
1.176621736633239
1.176680577455359
1.176731460286705
1.176765585832811
1.176778710775971
1.176780413766073
1.176780300487654
1.17677976453718
1.176777996255643
1.176774219287458
1.176767489096285
1.176756848814901
1.176741367627129
1.176720222584948
1.176692776619333
1.176658657883524
1.176617831005298
1.176570633649987
1.176517751648805
1.176460134498101
1.176398877108559
1.176335104151741
1.176269951896561
1.176204905685649
1.176142946506579
1.176090587194266
1.176057501808605
1.176046152410423
1.17604495358207
1.17604501931709
1.17604567423481
1.176047495708649
1.176051335652077
1.176058059225576
1.176068566573555
1.176083718327413
1.176104272275449
1.176130807888133
1.176163657962883
1.176202859956446
1.176248129781932
1.176298867916335
1.176354222029358
1.176413207801986
1.176474829757058
1.176538096161818
1.176601771636497
1.176663553484909
1.17671831149635
1.176757011932844
1.176773611511601
1.17677632042046
1.176776277768121
1.176775919479037
1.17677453652305
1.176771450057415
1.176765792460401
1.176756679670753
1.17674322900679
1.176724623100849
1.17670017145121
1.176669378505539
1.176632010427425
1.176588139651987
1.17653814804427
1.176482689266967
1.17642262266617
1.176358938508971
1.176292753672074
1.176225608544062
1.176160490182993
1.176103799697187
1.17606569239191
1.176050893441477
1.176048863126847
1.176048874891913
1.176049354214302
1.176050801666205
1.176053993109359
1.176059724513164
1.176068835312698
1.176082145727603
1.17610040584258
1.176124233943785
1.176154060126362
1.176190080657678
1.176232223144783
1.176280133844704
1.176333210255661
1.176390679336402
1.176451676330451
1.176515249994735
1.176580170473095
1.176644242235657
1.176702685938443
1.176746586602095
1.176767937773006
1.176772387438373
1.176772495304907
1.176772273925201
1.17677122053059
1.17676872710792
1.176763991137044
1.17675618779452
1.176744478283839
1.176728061826844
1.176706224077512
1.176678394274759
1.176644203411835
1.176603528463764
1.176556511135276
1.176503551315727
1.176445277873567
1.176382506461107
1.176316249477012
1.176247970879773
1.176180459423009
1.176119661457613
1.176075791250057
1.176056177902122
1.176052638876257
1.176052574146778
1.176052888910077
1.176054003137055
1.17605661700498
1.176061472805024
1.176069362395548
1.17608106883818
1.176097326284596
1.17611877057175
1.176145893318438
1.17617900020756
1.176218173643113
1.176263251965614
1.176313843198219
1.176369370421074
1.176429117334213
1.176492227585309
1.176557561117149
1.17662313936545
1.176684721078862
1.176733929035135
1.176761154212282
1.17676841690069
1.176768869607447
1.176768742587244
1.176767971883377
1.17676599874035
1.176762071701076
1.176755416178745
1.176745230639428
1.176730734336597
1.17671120498237
1.176686026678156
1.176654740378925
1.176617083658497
1.176573014750951
1.176522725528373
1.176466640134519
1.176405396438661
1.176339861702096
1.176271344463394
1.176202315643769
1.17613803424915
1.176088230426833
1.176062504075265
1.176056427628896
1.176056134320721
1.176056338262335
1.176057153919578
1.176059257081158
1.176063331831522
1.176070133093504
1.17608041280668
1.176094888897208
1.17611420491639
1.176138891957344
1.176169330635734
1.1762057152471
1.176248031221088
1.176296056494446
1.176349382066547
1.176407434811105
1.176469476595092
1.176534500330255
1.176600793550696
1.17666474382786
1.176718873576667
1.176752731017252
1.176764141520617
1.176765340612907
1.176765281865191
1.17676475507059
1.176763239257548
1.176760029050921
1.176754390159801
1.176745554945942
1.17673276352945
1.176715295446491
1.176692509704437
1.176663886632852
1.176629062739381
1.176587858384551
1.176540302296454
1.176486645097484
1.176427356032444
1.176363145350152
1.176295138435697
1.176225447081506
1.17615853797818
1.176103193670295
1.176070436508661
1.176060476272886
1.176059611029687
1.176059738450727
1.176060305830234
1.176061956839643
1.176065329047443
1.176071146178907
1.176080135160883
1.17609300098567
1.176110390335306
1.176132860358737
1.176160844735223
1.176194618885814
1.176234277160424
1.176279730013999
1.176330710834585
1.176386779463902
1.176447315799493
1.176511450528604
1.176577740300253
1.176643205501392
1.176701472535057
1.176742156945492
1.176759160783176
1.176761876413583
1.176761915750733
1.176761561057735
1.176760429192533
1.17675783896461
1.176753101889928
1.176745476980846
1.176734223460736
1.176718625461483
1.176698025825071
1.176671860417017
1.176639691724705
1.176601240113359
1.176556410072494
1.17650530723358
1.176448249678202
1.17638580152169
1.17631890697085
1.176249315893115
1.176180692638676
1.176120605568816
1.176080474513903
1.176065144014513
1.176063070014661
1.176063098565097
1.176063475296208
1.176064720788373
1.176067460295309
1.176072386273554
1.176080204385734
1.176091606521865
1.176107239833933
1.176127677378093
1.176153388017188
1.176184707995737
1.176221819352553
1.176264737624217
1.176313307416769
1.176367203598576
1.176425927390028
1.176488749037595
1.17655446140854
1.176620649199306
1.176682084027611
1.176729185418341
1.176752943785149
1.176758307325744
1.176758531611514
1.176758343531935
1.176757536471624
1.176755503788977
1.176751582045298
1.176745055998381
1.176735199996661
1.176721303685853
1.17670270268837
1.176678807417721
1.176649129315348
1.17661331095693
1.176571158738261
1.176522664738326
1.176468017735809
1.176407637287518
1.176342291690509
1.176273421535966
1.176203985847244
1.176140246250166
1.176093029585334
1.176070908443777
1.176066543756701
1.176066439571108
1.176066637483847
1.176067562499688
1.176069747627393
1.176073872508755
1.176080621359925
1.176090675849121
1.17610468320285
1.1761232313415
1.176146819173146
1.176175828683609
1.176210506496665
1.176250952176747
1.176297105461844
1.176348736996996
1.176405447015113
1.176466631460271
1.176531298214301
1.176597508800581
1.176661075363625
1.176713699296463
1.176744910440145
1.176754437110552
1.176755271384303
1.176755148501604
1.176754610304625
1.176753039920113
1.176749829540351
1.176744283286615
1.176735694735442
1.176723361778987
1.176706614391043
1.176684840253392
1.176657512201672
1.176624216619154
1.176584680848277
1.176538797552058
1.176486648160201
1.176428537572658
1.176365076790308
1.176297418914487
1.176227914318782
1.17616161936504
1.176108162816259
1.176078370109508
1.176070280377243
1.176069725862779
1.1760698445055
1.176070475015949
1.176072171070019
1.176075569862192
1.176081340997146
1.176090157477352
1.176102666128634
1.176119462366687
1.176141064957009
1.176167892755586
1.176200245306857
1.176238286530801
1.176282031626889
1.176331339784934
1.176385908210537
1.176445239834181
1.17650851352349
1.176574187834295
1.176638982377065
1.176696015754279
1.176734638868377
1.176749806299834
1.176751966324421
1.176751944458439
1.176751603470399
1.176750442369181
1.176747871093973
1.176743218979146
1.176735792978702
1.176724898159446
1.176709863909203
1.176690065262023
1.176664946256117
1.176634049309831
1.176597043646699
1.176553745494483
1.176504139483705
1.176448419313207
1.176387062262336
1.176320996051058
1.176252073281883
1.176184283732966
1.176125762064697
1.17608805632666
1.176074615803031
1.176073005477887
1.176073026530673
1.176073461867001
1.176074738859578
1.176077499312256
1.17608238433981
1.176090058648173
1.176101168330658
1.176116318000789
1.176136046597551
1.176160805079284
1.176190936041584
1.176226656555471
1.176268045186561
1.17631503283992
1.176367393036759
1.176424715867304
1.176486318715306
1.176550966860568
1.176616112170038
1.176676282206093
1.176721743283517
1.176744009023631
1.176748802501286
1.176748983943989
1.176748818546907
1.176748084645732
1.17674626107853
1.176742764784735
1.176736989689438
1.176728345372559
1.176716290399633
1.176700367160715
1.176680240020553
1.176655736927668
1.176626896116251
1.176594025254768
1.176557799510198
1.176519473912026
1.176481362567776
1.176447625649588
1.176424125124956
1.176413872398759
1.176411843986872
1.176411717858461
1.176411716175504
1.176411716172203
1.176411716172203
1.176411716172203
1.176411716172204
1.176411716172205
1.176411716172206
1.176411716172207
1.176411716172209
1.17641171617221
1.176411716172212
1.176411716172212
1.176411716172213
1.176411716172213
1.176411716172213
1.176411716172213
1.176411716172213
1.176411716172213
1.176411716172214
1.176411716172215
1.176411716172216
1.176411716172215
1.176411716172215
1.176411716172215
1.176411716172214
1.176411716172214
1.176411716172213
1.176411716172213
1.176411716172213
1.176411716172213
1.176411716172213
1.176411716172213
1.176411716172213
1.176411716172213
1.176411716172214
1.176411716172213
1.176411716172213
1.176411716172213
1.176411716172213
1.176411716172213
1.176411716172213
1.176411716172213
1.176411716172213
1.176411716172213
1.176411716172213
1.176411716172213
1.176411716172214
1.176411716172214
1.176411716172213
1.176411716172213
1.176411716172213
1.176411716172214
1.176411716172214
1.176411716172214
1.176411716172215
1.176411716172214
1.176411716172215
1.176411716172215
1.176411716172214
1.176411716172215
1.176411716172215
1.176411716172214
1.176411716172215
1.176411716172214
1.176411716172213
1.176411716172214
1.176411716172214
1.176411716172214
1.176411716172214
1.176411716172214
1.176411716172213
1.176411716172213
1.176411716172213
1.176411716172214
1.176411716172214
1.176411716172214
1.176411716172214
1.176411716172214
1.176411716172215
1.176411716172215
1.176411716172215
1.176411716172216
1.176411716172216
1.176411716172215
1.176411716172215
1.176411716172215
1.176411716172215
1.176411716172216
1.176411716172216
1.176411716172215
1.176411716172216
1.176411716172216
1.176411716172216
1.176411716172215
1.176411716172215
1.176411716172215
1.176411716172215
1.176411716172215
1.176411716172214
1.176411716172213
1.176411716172213
1.176411716172213
1.176411716172213
1.176411716172213
1.176411716172213
1.176411716172212
1.176411716172213
1.176411716172213
1.176411716172213
1.176411716172213
1.176411716172212
1.176411716172212
1.176411716172212
1.176411716172212
1.176411716172212
1.176411716172212
1.176411716172211
1.176411716172211
1.17641171617221
1.176411716172209
1.17641171617221
1.17641171617221
1.17641171617221
1.176411716172211
1.176411716172211
1.176411716172211
1.176411716172212
1.176411716172212
1.176411716172213
1.176411716172213
1.176411716172214
1.176411716172215
1.176411716172215
1.176411716172215
1.176411716172214
1.176411716172214
1.176411716172215
1.176411716172215
1.176411716172214
1.176411716172214
1.176411716172214
1.176411716172214
1.176411716172215
1.176411716172215
1.176411716172215
1.176411716172215
1.176411716172215
1.176411716172215
1.176411716172215
1.176411716172215
1.176411716172215
1.176411716172216
1.176411716172216
1.176411716172216
1.176411716172217
1.176411716172217
1.176411716172216
1.176411716172216
1.176411716172216
1.176411716172217
1.176411716172217
1.176411716172216
1.176411716172215
1.176411716172214
1.176411716172214
1.176411716172214
1.176411716172214
1.176411716172214
1.176411716172214
1.176411716172214
1.176411716172214
1.176411716172214
1.176411716172213
1.176411716172213
1.176411716172214
1.176411716172213
1.176411716172214
1.176411716172215
1.176411716172215
1.176411716172215
1.176411716172216
1.176411716172216
1.176411716172216
1.176411716172216
1.176411716172216
1.176411716172217
1.176411716172217
1.176411716172217
1.176411716172217
1.176411716172217
1.176411716172217
1.176411716172216
1.176411716172216
1.176411716172216
1.176411716172216
1.176411716172216
1.176411716172217
1.176411716172217
1.176411716172217
1.176411716172217
1.176411716172217
1.176411716172217
1.176411716172217
1.176411716172216
1.176411716172216
1.176411716172216
1.176411716172216
1.176411716172216
1.176411716172216
1.176411716172216
1.176411716172216
1.176411716172215
1.176411716172215
1.176411716172215
1.176411716172215
1.176411716172215
1.176411716172214
1.176411716172214
1.176411716172215
1.176411716172215
1.176411716172216
1.176411716172217
1.176411716172217
1.176411716172217
1.176411716172216
1.176411716172215
1.176411716172215
1.176411716172215
1.176411716172215
1.176411716172215
1.176411716172214
1.176411716172215
1.176411716172215
1.176411716172215
1.176411716172215
1.176411716172215
1.176411716172215
1.176411716172215
1.176411716172215
1.176411716172215
1.176411716172215
1.176411716172215
1.176411716172215
1.176411716172214
1.176411716172214
1.176411716172215
1.176411716172215
1.176411716172215
1.176411716172215
1.176411716172215
1.176411716172215
1.176411716172215
1.176411716172214
1.176411716172214
1.176411716172214
1.176411716172214
1.176411716172214
1.176411716172214
1.176411716172214
1.176411716172214
1.176411716172215
1.176411716172216
1.176411716172217
1.176411716172217
1.176411716172217
1.176411716172217
1.176411716172217
1.176411716172217
1.176411716172217
1.176411716172217
1.176411716172217
1.176411716172218
1.176411716172218
1.176411716172219
1.176411716172219
1.176411716172219
1.176411716172218
1.176411716172218
1.176411716172218
1.176411716172217
1.176411716172217
1.176411716172217
1.176411716172217
1.176411716172217
1.176411716172217
1.176411716172217
1.176411716172216
1.176411716172215
1.176411716172214
1.176411716172214
1.176411716172213
1.176411716172213
1.176411716172213
1.176411716172212
1.176411716172213
1.176411716172213
1.176411716172213
1.176411716172213
1.176411716172213
)
;

boundaryField
{
    inlet
    {
        type            calculated;
        value           uniform 1.176395973595895;
    }
    outlet
    {
        type            calculated;
        value           uniform 1.176411716172221;
    }
    frontAndBack
    {
        type            empty;
    }
}


// ************************************************************************* //
