/*--------------------------------*- C++ -*----------------------------------*\
| =========                 |                                                 |
| \\      /  F ield         | OpenFOAM: The Open Source CFD Toolbox           |
|  \\    /   O peration     | Version:  v2012                                 |
|   \\  /    A nd           | Website:  www.openfoam.com                      |
|    \\/     M anipulation  |                                                 |
\*---------------------------------------------------------------------------*/
FoamFile
{
    version     2.0;
    format      ascii;
    class       volScalarField;
    location    "0.005";
    object      T;
}
// * * * * * * * * * * * * * * * * * * * * * * * * * * * * * * * * * * * * * //

dimensions      [0 0 0 1 0 0 0];


internalField   nonuniform List<scalar> 
1000
(
299.9878133158829
299.9895859342963
299.983275507744
299.9786205518682
299.9741741922591
299.9703158700258
299.9667887352774
299.9635978077825
299.9608119980141
299.9589717279065
299.9585201154535
299.958593399099
299.9589598126159
299.9598166911356
299.9614567012941
299.9639616005105
299.967245056968
299.9711578451145
299.9755751594765
299.9804110017485
299.9855948297704
299.9910498412164
299.9966851612161
300.0023957760222
300.0080658215571
300.0135782675128
300.0188332845129
300.0237709650596
300.0283844886246
300.032685355462
300.0365426449638
300.0394058469271
300.04062926545
300.0407679898101
300.0407068001692
300.040482591969
300.0398561537015
300.0386276819157
300.0366204358037
300.0337538517607
300.0300615491615
300.0256730988619
300.0207610749961
300.015487269069
300.0099774851793
300.0043277615998
299.9986230827979
299.992950300031
299.9873981183802
299.9820420158457
299.9769197288859
299.9720293580085
299.9674144261069
299.9633915596191
299.9607162728666
299.9598052664423
299.9597433100789
299.959778044808
299.959998827716
299.9605426606246
299.9616003989634
299.9633340749167
299.9658591053623
299.9692122354348
299.9733413507973
299.97811758418
299.9833678746614
299.9889150761096
299.9946077952645
300.0003294847135
300.0059930993926
300.0115375535223
300.0169323597215
300.0221763901855
300.0272647015357
300.0320888277144
300.0362357263617
300.0389056789332
300.0397838434451
300.0398480434038
300.039800158052
300.0396264808553
300.0391640928873
300.0382654687601
300.0367737760233
300.034561227943
300.0315513252257
300.027739004303
300.0231957664671
300.0180575747885
300.0124997683239
300.0067061596403
300.0008392108504
299.9950184774582
299.9893129705964
299.9837468398447
299.978315765933
299.9730297365929
299.9680338751658
299.9638361257557
299.9612950649604
299.9605549419784
299.960517373633
299.9605481471658
299.9607242056725
299.9611519577012
299.961980547036
299.9633499942193
299.9653833044154
299.9681647470122
299.971723296506
299.9760215654704
299.9809564450407
299.9863746626767
299.9920994556466
299.997959717623
300.0038153394703
300.0095760897065
300.0152084474421
300.0207185402162
300.0260957022854
300.031191244074
300.0355151806285
300.0382255713134
300.0390929127416
300.0391591900651
300.0391231656022
300.0389895682498
300.0386284336236
300.037918235695
300.0367235590837
300.0349204003646
300.0324106696348
300.029139750621
300.0251092501281
300.0203822520079
300.0150791920464
300.0093622937672
300.0034083824453
299.9973765546269
299.9913825751394
299.9854896244685
299.9797216647162
299.9741164156729
299.9688599539425
299.9645093169887
299.9619268007181
299.961182884491
299.9611408054553
299.9611639788854
299.9613028795121
299.9616478399772
299.9623237369426
299.9634527377738
299.9651506717528
299.9675117876889
299.9705952011334
299.974412001829
299.9789178329199
299.9840150386256
299.989564819535
299.9954069978026
300.0013852744829
300.0073741681917
300.0132969418826
300.0191180795891
300.0247927798827
300.0301476730949
300.034678966122
300.0375421663867
300.0384943953024
300.038579087667
300.0385531816195
300.0384530344477
300.0381681503757
300.0375945026417
300.0366123989471
300.0351067282297
300.0329764051443
300.0301477585831
300.0265862671048
300.0223055049528
300.0173713513428
300.0118978589998
300.0060316808774
299.9999274645049
299.9937224264555
299.9875194953714
299.9813901156502
299.9754203494194
299.9698436090412
299.9652569377664
299.9625342775656
299.961727510194
299.9616721992588
299.9616895777554
299.9618002605407
299.9620813623266
299.962641414089
299.9635890737518
299.9650319831191
299.967064990775
299.9697595891261
299.9731526346446
299.9772377278635
299.9819623368373
299.9872315582738
299.9929183860496
299.9988813641002
300.0049881773656
300.011135700482
300.0172498315079
300.0232452903957
300.0289162254905
300.0337409980259
300.036857097171
300.0379593003255
300.0380767556741
300.0380584524628
300.0379828971912
300.0377556075212
300.0372863781608
300.0364684445439
300.0351954635534
300.033368100794
300.0309047123336
300.0277511504502
300.0238896450967
300.0193455585668
300.0141887490537
300.0085261411589
300.002486207792
299.9962002567306
299.9897867360306
299.983349397813
299.9770160587826
299.9710645176129
299.9661349438343
299.9631514305696
299.962219534696
299.9621421983869
299.9621534907456
299.962240193724
299.9624694189181
299.9629378603304
299.9637426204348
299.9649827417879
299.9667500114136
299.9691208319436
299.9721466761857
299.9758458385258
299.9801987285182
299.9851473639876
299.9905996652934
299.9964405607489
300.0025496921132
300.0088182454439
300.015150881982
300.0214339582752
300.0274382694609
300.0326303693433
300.0361124669894
300.0374516903041
300.0376254579608
300.0376139007737
300.0375592161554
300.0373787880898
300.0369933994948
300.0363066714567
300.0352209640989
300.0336412916266
300.0314836689082
300.0286830699633
300.0252015234612
300.0210353843418
300.0162190678541
300.0108225164678
300.0049425826435
299.9986909666842
299.9921824176201
299.9855328814364
299.9788939469449
299.9725698815834
299.9672254941079
299.9638483406692
299.962689849294
299.9625674793659
299.9625741906856
299.9626410430617
299.9628269708919
299.9632189329369
299.9639052386325
299.9649777658734
299.9665243555111
299.9686223453483
299.9713308648233
299.9746838573571
299.9786851136794
299.9833055998452
299.9884840847571
299.9941335374533
300.0001534628298
300.0064422366162
300.0128986278118
300.0193965541173
300.0257010363683
300.0312886040113
300.035237535827
300.0369313036699
300.0372077114957
300.037203360332
300.037166803152
300.0370256918377
300.0367107591069
300.0361334744892
300.035203627933
300.0338311468889
300.0319326184165
300.0294375681851
300.026295406532
300.0224822413152
300.0180054259945
300.0129038851587
300.0072442788185
300.0011142605411
299.9946148524246
299.9878600090152
299.9810069241454
299.9743604711912
299.9685740406837
299.9646843018864
299.9631737008625
299.9629664565987
299.9629676584382
299.9630165863612
299.9631643353546
299.9634901010883
299.9640751306607
299.965005105916
299.966363744231
299.9682275994979
299.9706597665236
299.9737041240573
299.9773806766676
299.9816820007609
299.9865719521862
299.9919889966458
299.9978541972782
300.0040792631607
300.0105670859104
300.017192136312
300.0237303591913
300.0296940727303
300.0341736585331
300.0363522718891
300.0368063006527
300.0368173075569
300.036794719522
300.0366872350677
300.0364328139083
300.0359495685365
300.0351533340335
300.0339585170735
300.0322833996103
300.0300550773512
300.0272152902423
300.0237263574423
300.0195756908483
300.014777710073
300.0093731777702
300.0034262234861
299.9970200422419
299.9902579160354
299.983289226073
299.9763985909353
299.9701929655815
299.9657150193309
299.9637129963857
299.9633517504336
299.9633451436876
299.9633772736561
299.9634910083318
299.9637578176301
299.9642534696882
299.9650587906092
299.9662537060624
299.967913145494
299.9701019978739
299.9728704251739
299.9762496037644
299.9802479133707
299.9848488174017
299.9900122688732
299.9956793450532
300.0017769013218
300.0082175061765
300.0148847853368
300.0215768126836
300.027860798959
300.0328819776948
300.0356599722313
300.0364010333654
300.0364472263616
300.0364342660242
300.0363556260117
300.0361542921173
300.0357535872154
300.0350744728723
300.0340351589259
300.0325559729803
300.0305632028464
300.0279939859327
300.0248014576315
300.020958808821
300.0164617399881
300.0113297876304
300.0056061881073
299.9993559891972
299.9926676537954
299.9856746910047
299.9786292661326
299.9720681575654
299.9669845944481
299.964358602524
299.9637383501648
299.9637084109901
299.9637292284849
299.9638124864056
299.9640271651281
299.964443091471
299.9651373218356
299.9661866060477
299.9676642188642
299.9696358388871
299.9721556601789
299.9752625108699
299.9789761947057
299.983295190828
299.9881967959263
299.9936392250543
299.9995639431697
300.0058955789041
300.0125313206212
300.0192963868683
300.0258221404403
300.0313455909842
300.0348003488388
300.0359646426132
300.0360869942959
300.0360809999852
300.0360272474292
300.0358725778203
300.0355450161053
300.0349696358762
300.0340681063583
300.0327628856567
300.0309804497164
300.0286553781177
300.025734623376
300.0221810670247
300.0179763437745
300.0131233443
300.0076475979924
300.0015969425656
299.9950438126525
299.9881030174585
299.980990056615
299.9741608195776
299.9685117840778
299.9651681504119
299.9641514632486
299.964063143848
299.9640761503092
299.9641340651529
299.9643025903987
299.9646468048205
299.9652405806891
299.9661581154017
299.9674713647286
299.9692463286547
299.9715398632498
299.9743962158266
299.9778434737217
299.9818912362531
299.9865303278199
299.9917334969354
299.997455778383
300.0036338437502
300.0101789367685
300.0169437308444
300.0236241508734
300.0295698360374
300.0337212394799
300.0354562672396
300.0357333619781
300.0357373758307
300.0357011838305
300.0355856909853
300.035321389961
300.0348380285909
300.034059996044
300.0329117007365
300.0313200892095
300.029218093869
300.0265481330607
300.0232655385408
300.0193417445832
300.0147669668218
300.0095519404479
300.0037290769214
299.9973558951813
299.9905287087757
299.9834260692912
299.9764219573705
299.970288890317
299.9661926104641
299.9646277613469
299.9644160586645
299.9644189728764
299.9644574272599
299.9645845594372
299.9648641911833
299.9653670032699
299.9661650231341
299.9673288701399
299.9689245937548
299.9710106758096
299.9736349574393
299.9768317371506
299.9806195674412
299.9850000004978
299.9899571378008
299.9954577542229
300.0014509019928
300.0078620641094
300.0145680139778
300.0213222510102
300.0275912543042
300.0323974847688
300.0348217401065
300.0353690206114
300.0353919060411
300.0353727147595
300.0352903640331
300.0350829533393
300.0346827862186
300.034016879281
300.0330111851145
300.0315932142419
300.0296951643522
300.027256859245
300.0242284249684
300.0205733612609
300.0162718769805
300.0113231221397
300.0057463141653
299.999584218849
299.992915193935
299.9858862192065
299.9787992724487
299.9722934680933
299.9674739858856
299.9652159984072
299.9647704755362
299.9647598407716
299.9647800423808
299.9648744621048
299.9650975059526
299.9655185467942
299.9662074233772
299.9672337125034
299.9686634725248
299.9705567042911
299.9729643179796
299.9759252835837
299.9794647485226
299.9835928440851
299.9883033834311
299.9935729177195
299.9993606041455
300.0056047520172
300.012204073038
300.0189607169573
300.0254473247689
300.0308171303616
300.0340018734012
300.034973950583
300.0350590775996
300.0350465388288
300.0349916222121
300.0348313832039
300.034503801905
300.0339378710464
300.0330615058838
300.0318030595246
300.0300941549608
300.0278722987128
300.0250836802481
300.0216860684611
300.0176516085146
300.0129693082638
300.0076474323229
300.0017170462236
299.9952404534589
299.9883352881336
299.981241396312
299.9744748519423
299.9690185103661
299.9659774772066
299.9651517245736
299.9650951228891
299.9651072331016
299.9651715914578
299.9653447135514
299.9656916395999
299.9662807172309
299.9671806393591
299.9684574245041
299.9701718401186
299.9723768252803
299.9751151157685
299.9784172632422
299.9822999702695
299.9867647543835
299.9917972055767
299.9973663787238
300.0034215010361
300.0098787310128
300.0165807286884
300.0231927234949
300.0290125369736
300.0329536192737
300.0345012713431
300.0347216748045
300.0347194435629
300.0346846497017
300.0345661730004
300.0343038044676
300.0338291097584
300.0330713696663
300.0319596703168
300.030425576332
300.0284053056332
300.0258421116855
300.0226892800548
300.0189130284126
300.0144945678213
300.0094322872956
300.0037459057127
299.9974840795739
299.9907414381906
299.9837070162484
299.9767880078469
299.9708147327932
299.9669660226673
299.9655940973461
299.9654297249101
299.9654318737824
299.9654763099823
299.9656066568504
299.9658884251554
299.9663870547049
299.9671703920852
299.9683043819481
299.9698507319284
299.9718644420369
299.9743915269623
299.9774669350631
299.9811127965196
299.9853370988403
299.9901327535391
299.9954766055748
300.0013267776407
300.0076135629145
300.0142109183302
300.0208587870363
300.0269987426299
300.0316376105347
300.0339095708291
300.0343986861633
300.0344172001286
300.0344003232711
300.0343254372174
300.0341393633712
300.0337826067295
300.0331933231609
300.0323112645304
300.0310811790067
300.0294563652883
300.0274025649248
300.0249022080482
300.0219591795253
300.0186048562658
300.0149081171277
300.0109970189579
300.007107708399
300.0036647480349
300.00126640622
300.0002200559633
300.0000130442442
300.0000001720923
300.0000000003368
299.9999999999999
299.9999999999999
300
300.0000000000002
300.0000000000002
300.0000000000003
300.0000000000003
300.0000000000005
300.0000000000006
300.0000000000007
300.0000000000009
300.0000000000011
300.0000000000012
300.0000000000012
300.0000000000011
300.000000000001
300.000000000001
300.000000000001
300.0000000000009
300.0000000000009
300.000000000001
300.0000000000011
300.0000000000011
300.000000000001
300.000000000001
300.0000000000011
300.0000000000012
300.0000000000011
300.0000000000012
300.0000000000012
300.0000000000013
300.0000000000011
300.0000000000011
300.0000000000011
300.0000000000012
300.0000000000013
300.0000000000013
300.0000000000014
300.0000000000015
300.0000000000015
300.0000000000014
300.0000000000013
300.0000000000013
300.0000000000013
300.0000000000013
300.0000000000013
300.0000000000013
300.0000000000013
300.0000000000013
300.0000000000013
300.0000000000013
300.0000000000012
300.000000000001
300.000000000001
300.000000000001
300.0000000000011
300.0000000000011
300.000000000001
300.000000000001
300.000000000001
300.000000000001
300.000000000001
300.000000000001
300.000000000001
300.000000000001
300.0000000000009
300.0000000000009
300.000000000001
300.000000000001
300.0000000000011
300.0000000000011
300.0000000000011
300.000000000001
300.0000000000009
300.0000000000009
300.0000000000009
300.000000000001
300.000000000001
300.0000000000009
300.000000000001
300.0000000000011
300.0000000000011
300.0000000000011
300.000000000001
300.000000000001
300.0000000000009
300.0000000000009
300.000000000001
300.0000000000009
300.0000000000009
300.0000000000009
300.0000000000008
300.0000000000007
300.0000000000009
300.000000000001
300.0000000000011
300.0000000000014
300.0000000000014
300.0000000000015
300.0000000000016
300.0000000000016
300.0000000000018
300.0000000000018
300.0000000000018
300.0000000000017
300.0000000000017
300.0000000000016
300.0000000000015
300.0000000000014
300.0000000000014
300.0000000000014
300.0000000000014
300.0000000000013
300.0000000000011
300.0000000000011
300.0000000000012
300.0000000000014
300.0000000000014
300.0000000000014
300.0000000000015
300.0000000000014
300.0000000000013
300.0000000000011
300.000000000001
300.000000000001
300.000000000001
300.0000000000009
300.0000000000009
300.0000000000009
300.0000000000009
300.0000000000009
300.0000000000009
300.000000000001
300.000000000001
300.000000000001
300.0000000000011
300.0000000000011
300.0000000000012
300.0000000000012
300.0000000000011
300.0000000000012
300.0000000000013
300.0000000000013
300.0000000000013
300.0000000000013
300.0000000000013
300.0000000000012
300.0000000000013
300.0000000000014
300.0000000000013
300.0000000000013
300.0000000000013
300.0000000000013
300.0000000000013
300.0000000000013
300.0000000000013
300.0000000000014
300.0000000000014
300.0000000000014
300.0000000000013
300.0000000000013
300.0000000000013
300.0000000000015
300.0000000000016
300.0000000000016
300.0000000000016
300.0000000000017
300.0000000000018
300.0000000000018
300.0000000000018
300.0000000000018
300.0000000000019
300.0000000000022
300.0000000000023
300.0000000000023
300.0000000000023
300.000000000002
300.0000000000019
300.0000000000018
300.0000000000018
300.0000000000017
300.0000000000017
300.0000000000018
300.0000000000019
300.0000000000019
300.0000000000019
300.0000000000019
300.0000000000019
300.0000000000018
300.0000000000019
300.0000000000018
300.0000000000019
300.000000000002
300.000000000002
300.0000000000021
300.000000000002
300.0000000000019
300.0000000000018
300.0000000000018
300.0000000000018
300.0000000000018
300.0000000000019
300.0000000000018
300.0000000000018
300.0000000000019
300.0000000000019
300.0000000000019
300.000000000002
300.0000000000019
300.000000000002
300.000000000002
300.0000000000019
300.0000000000019
300.0000000000018
300.0000000000019
300.000000000002
300.000000000002
300.000000000002
300.0000000000018
300.0000000000016
300.0000000000014
300.0000000000013
300.0000000000013
300.0000000000014
300.0000000000016
300.0000000000018
300.0000000000017
300.0000000000016
300.0000000000016
300.0000000000016
300.0000000000017
300.0000000000017
300.0000000000017
300.0000000000016
300.0000000000013
300.0000000000011
300.0000000000011
300.0000000000012
300.0000000000011
300.0000000000011
300.0000000000011
300.0000000000012
300.0000000000013
300.0000000000013
300.0000000000013
300.0000000000013
300.0000000000012
300.0000000000011
300.0000000000011
300.0000000000012
300.0000000000014
300.0000000000014
300.0000000000015
300.0000000000017
300.0000000000016
300.0000000000016
300.0000000000016
300.0000000000016
300.0000000000016
300.0000000000015
300.0000000000013
300.0000000000013
300.0000000000013
300.0000000000013
300.0000000000013
300.0000000000013
300.0000000000012
300.0000000000012
300.0000000000013
300.0000000000013
300.0000000000013
300.0000000000012
300.0000000000011
300.0000000000011
300.0000000000011
300.0000000000011
300.0000000000011
300.0000000000013
300.0000000000014
300.0000000000014
300.0000000000013
300.0000000000014
300.0000000000014
300.0000000000015
300.0000000000015
300.0000000000016
300.0000000000018
300.0000000000019
300.0000000000019
300.000000000002
300.000000000002
300.000000000002
300.000000000002
300.000000000002
300.0000000000019
300.0000000000019
300.000000000002
300.0000000000019
)
;

boundaryField
{
    inlet
    {
        type            fixedValue;
        value           uniform 300;
    }
    outlet
    {
        type            inletOutlet;
        inletValue      uniform 300;
        value           uniform 300;
    }
    frontAndBack
    {
        type            empty;
    }
}


// ************************************************************************* //
