/*--------------------------------*- C++ -*----------------------------------*\
| =========                 |                                                 |
| \\      /  F ield         | OpenFOAM: The Open Source CFD Toolbox           |
|  \\    /   O peration     | Version:  v2012                                 |
|   \\  /    A nd           | Website:  www.openfoam.com                      |
|    \\/     M anipulation  |                                                 |
\*---------------------------------------------------------------------------*/
FoamFile
{
    version     2.0;
    format      ascii;
    class       volVectorField;
    location    "0.005";
    object      U;
}
// * * * * * * * * * * * * * * * * * * * * * * * * * * * * * * * * * * * * * //

dimensions      [0 1 -1 0 0 0 0];


internalField   nonuniform List<vector> 
1000
(
(-0.002786591988370553 0 0)
(-0.0344393307620592 0 0)
(-0.04262950081549331 0 0)
(-0.05778595296652483 0 0)
(-0.07165510176948497 0 0)
(-0.08457709755327664 0 0)
(-0.09560975741233471 0 0)
(-0.1050467152009589 0 0)
(-0.1131943485193543 0 0)
(-0.1186882061185583 0 0)
(-0.1201332838009247 0 0)
(-0.1199742620803323 0 0)
(-0.119168443553586 0 0)
(-0.1166552329713069 0 0)
(-0.1118164175718137 0 0)
(-0.1044599670583171 0 0)
(-0.09486808586091829 0 0)
(-0.08347291132865822 0 0)
(-0.07063683068828253 0 0)
(-0.05660980623432112 0 0)
(-0.04159146640715029 0 0)
(-0.02580082552417075 0 0)
(-0.009506693576294798 0 0)
(0.006984525137106083 0 0)
(0.02335447351246737 0 0)
(0.03928494435598161 0 0)
(0.05447932028318659 0 0)
(0.06873982841259713 0 0)
(0.08205545515548145 0 0)
(0.09450197112496315 0 0)
(0.1056999211449096 0 0)
(0.1139894157543461 0 0)
(0.1174904308537707 0 0)
(0.1178743407795332 0 0)
(0.1177838730752838 0 0)
(0.1170840256008584 0 0)
(0.115288456003127 0 0)
(0.1117307774240308 0 0)
(0.1059221880229968 0 0)
(0.097628595004614 0 0)
(0.08694958394567576 0 0)
(0.07425630776840567 0 0)
(0.06004530720019698 0 0)
(0.044789330108779 0 0)
(0.02885701014470966 0 0)
(0.01251975390148121 0 0)
(-0.003985796505379806 0 0)
(-0.02040146846899496 0 0)
(-0.0364552688487003 0 0)
(-0.05193527936195226 0 0)
(-0.06675755228425771 0 0)
(-0.08092539645011924 0 0)
(-0.09427378891911996 0 0)
(-0.1058791378664818 0 0)
(-0.1136093509538688 0 0)
(-0.1162822087853727 0 0)
(-0.1164858953018712 0 0)
(-0.116318832899008 0 0)
(-0.1157207830842024 0 0)
(-0.1141353377826397 0 0)
(-0.1110774008451187 0 0)
(-0.1060632335518547 0 0)
(-0.09875958187155566 0 0)
(-0.08905836332011723 0 0)
(-0.07711347831921919 0 0)
(-0.06329998942342666 0 0)
(-0.04811450244255579 0 0)
(-0.03206540823210341 0 0)
(-0.01559570549500346 0 0)
(0.0009501790026879974 0 0)
(0.01732620798255798 0 0)
(0.03336834657108662 0 0)
(0.04898320655825324 0 0)
(0.06414664216076855 0 0)
(0.07884635186877959 0 0)
(0.09280100628961926 0 0)
(0.104821340211788 0 0)
(0.1125502075894066 0 0)
(0.1150593968005186 0 0)
(0.1152257711997655 0 0)
(0.1151414558704874 0 0)
(0.1146057056702393 0 0)
(0.1132783685667329 0 0)
(0.1106777964868554 0 0)
(0.1063626366427144 0 0)
(0.09996265529805777 0 0)
(0.09125837343146256 0 0)
(0.08023257096420654 0 0)
(0.0670897033042193 0 0)
(0.05222624639661229 0 0)
(0.03615331187769621 0 0)
(0.01939861212284291 0 0)
(0.002425133511634307 0 0)
(-0.01441727658999819 0 0)
(-0.03091735402147455 0 0)
(-0.0470079574191052 0 0)
(-0.06272036012523791 0 0)
(-0.07802694273902697 0 0)
(-0.09247962455416113 0 0)
(-0.1046002807786181 0 0)
(-0.1119409556021601 0 0)
(-0.1141064697364812 0 0)
(-0.1142382166965959 0 0)
(-0.1141009135425266 0 0)
(-0.113618970933394 0 0)
(-0.1123736141983628 0 0)
(-0.109977865026026 0 0)
(-0.1060170976119799 0 0)
(-0.1001357231367624 0 0)
(-0.09208863502780464 0 0)
(-0.08179436487857637 0 0)
(-0.06936279052405434 0 0)
(-0.05508912593982232 0 0)
(-0.03941383939011999 0 0)
(-0.02285225175746604 0 0)
(-0.005904525229007046 0 0)
(0.01102873559549191 0 0)
(0.02769561394804287 0 0)
(0.04399459767815021 0 0)
(0.05992817417533423 0 0)
(0.07546822720230334 0 0)
(0.09020871171104299 0 0)
(0.1027341956127975 0 0)
(0.1105766371031842 0 0)
(0.1130634706392746 0 0)
(0.1132409923314568 0 0)
(0.113177462730764 0 0)
(0.1127654373850926 0 0)
(0.111728723913639 0 0)
(0.1096734577501306 0 0)
(0.1062176000794359 0 0)
(0.1010018245958663 0 0)
(0.09374381100216886 0 0)
(0.08428371293997187 0 0)
(0.07262446581647919 0 0)
(0.05895095706370764 0 0)
(0.04361429398082412 0 0)
(0.02708048520379556 0 0)
(0.009856147993856399 0 0)
(-0.007594908827067729 0 0)
(-0.02492963397797962 0 0)
(-0.04196856234989291 0 0)
(-0.05865592396474664 0 0)
(-0.07488133543481131 0 0)
(-0.09008562839674328 0 0)
(-0.1026540058929244 0 0)
(-0.1101196568211621 0 0)
(-0.1122911332896829 0 0)
(-0.1124261093978947 0 0)
(-0.1123244237715765 0 0)
(-0.1119434804959149 0 0)
(-0.1109393024729896 0 0)
(-0.1089851412666726 0 0)
(-0.1057198095320461 0 0)
(-0.1008083521528517 0 0)
(-0.09397733201388812 0 0)
(-0.0850577875244692 0 0)
(-0.07401865528624876 0 0)
(-0.06098548809747886 0 0)
(-0.04623896210908297 0 0)
(-0.03018443605748983 0 0)
(-0.01328880449234746 0 0)
(0.004000728610182143 0 0)
(0.02132778229664386 0 0)
(0.03846472142626246 0 0)
(0.05529711473455885 0 0)
(0.07170077225320978 0 0)
(0.08719365749207192 0 0)
(0.1003154584201497 0 0)
(0.1085958383620463 0 0)
(0.1113314772408981 0 0)
(0.1115677205935888 0 0)
(0.1115272224661709 0 0)
(0.1112139649103247 0 0)
(0.1103975125899474 0 0)
(0.1087371153012774 0 0)
(0.1058961995514275 0 0)
(0.1015409619027277 0 0)
(0.09538016964941103 0 0)
(0.08719912448614439 0 0)
(0.07689668136090269 0 0)
(0.06451421668452102 0 0)
(0.05024435795104421 0 0)
(0.03441408590214681 0 0)
(0.01744387338775038 0 0)
(-0.000215487828717437 0 0)
(-0.01816077077310939 0 0)
(-0.03609793026199256 0 0)
(-0.05383095047849248 0 0)
(-0.07110819134135953 0 0)
(-0.08723770061046615 0 0)
(-0.1004921538007047 0 0)
(-0.1083661632164577 0 0)
(-0.1107152698122787 0 0)
(-0.1108849340804362 0 0)
(-0.1108061854411328 0 0)
(-0.1105040984959943 0 0)
(-0.1096852636651332 0 0)
(-0.1080661796863304 0 0)
(-0.1053253101491709 0 0)
(-0.1011514796732656 0 0)
(-0.09526975385232056 0 0)
(-0.08747508224221644 0 0)
(-0.07766145782007676 0 0)
(-0.06584498524053289 0 0)
(-0.05217652081996697 0 0)
(-0.03693408134994497 0 0)
(-0.02048739073795554 0 0)
(-0.003240945648924545 0 0)
(0.01442704890820985 0 0)
(0.03221230214812419 0 0)
(0.04989199087923106 0 0)
(0.06722633127204067 0 0)
(0.08363464773287202 0 0)
(0.09760144304887323 0 0)
(0.1066104872570258 0 0)
(0.1097841089931676 0 0)
(0.1101188172058979 0 0)
(0.1100945139977385 0 0)
(0.1098545122435537 0 0)
(0.1092044011919093 0 0)
(0.1078458985126927 0 0)
(0.1054798881113501 0 0)
(0.101797800305592 0 0)
(0.09651319017163419 0 0)
(0.08938840160335738 0 0)
(0.0802659665371811 0 0)
(0.06909652700606875 0 0)
(0.0559548499540867 0 0)
(0.04104005161775812 0 0)
(0.02465872675954254 0 0)
(0.007186306684713868 0 0)
(-0.0109926458899669 0 0)
(-0.02954028827786654 0 0)
(-0.04816495721603213 0 0)
(-0.06649184859186466 0 0)
(-0.08370340851669567 0 0)
(-0.09795189532448291 0 0)
(-0.1065841814771386 0 0)
(-0.1092931317629712 0 0)
(-0.1095220947081423 0 0)
(-0.1094649086106592 0 0)
(-0.1092314427899475 0 0)
(-0.1085625995483906 0 0)
(-0.1072086812085933 0 0)
(-0.1048810573072021 0 0)
(-0.1012937084152985 0 0)
(-0.09618083657173757 0 0)
(-0.08932294028284635 0 0)
(-0.08057127000355467 0 0)
(-0.06987080230635777 0 0)
(-0.05727783427906359 0 0)
(-0.04296326134162951 0 0)
(-0.02719458894774104 0 0)
(-0.01030019032493031 0 0)
(0.007374396460244561 0 0)
(0.02550814289255356 0 0)
(0.04381970955603719 0 0)
(0.06198857402617869 0 0)
(0.07936232587095603 0 0)
(0.09438820385513237 0 0)
(0.104453562666968 0 0)
(0.1083160783583367 0 0)
(0.1088162529742981 0 0)
(0.1088082866525278 0 0)
(0.1086289159174006 0 0)
(0.1081147345987404 0 0)
(0.1069984832474553 0 0)
(0.1050120948780938 0 0)
(0.1018717663491338 0 0)
(0.09730340792802791 0 0)
(0.09106283653245782 0 0)
(0.08296155073325648 0 0)
(0.07289142227318113 0 0)
(0.06084262733339904 0 0)
(0.04691219342025886 0 0)
(0.03130089332493088 0 0)
(0.01429227630096627 0 0)
(-0.003787693447402287 0 0)
(-0.02261170974037081 0 0)
(-0.04184988734194757 0 0)
(-0.06105814943771674 0 0)
(-0.0793467738902081 0 0)
(-0.09479870842795353 0 0)
(-0.1045712381094413 0 0)
(-0.1079317937911144 0 0)
(-0.1082885771018626 0 0)
(-0.1082497274747269 0 0)
(-0.1080714137930016 0 0)
(-0.1075282233906479 0 0)
(-0.106395595263662 0 0)
(-0.1044105289725175 0 0)
(-0.1013078681149855 0 0)
(-0.09683350343832332 0 0)
(-0.09076499390316844 0 0)
(-0.08293101209824108 0 0)
(-0.07323156824429933 0 0)
(-0.06165600825804676 0 0)
(-0.04829113970075243 0 0)
(-0.03331411283585115 0 0)
(-0.01697248301995537 0 0)
(0.000443843358232497 0 0)
(0.01863460113021711 0 0)
(0.03730425132891094 0 0)
(0.05609710208107065 0 0)
(0.07433973863127478 0 0)
(0.09050610821508467 0 0)
(0.1019203431597741 0 0)
(0.1068111514967845 0 0)
(0.1076100459012239 0 0)
(0.1076214556207973 0 0)
(0.1074933237703837 0 0)
(0.1070938744886358 0 0)
(0.1061809747495832 0 0)
(0.1045113160472952 0 0)
(0.1018218794995424 0 0)
(0.09785262863324502 0 0)
(0.09236130194560502 0 0)
(0.08514402612186496 0 0)
(0.07605580080168228 0 0)
(0.06502763835176519 0 0)
(0.05207877257894135 0 0)
(0.03732125373415356 0 0)
(0.02095078383734862 0 0)
(0.003222142305880484 0 0)
(-0.0155767014618518 0 0)
(-0.0351190500774106 0 0)
(-0.05494449975942624 0 0)
(-0.07416548825380684 0 0)
(-0.09089915840852039 0 0)
(-0.1021553390585022 0 0)
(-0.1065313265522903 0 0)
(-0.107131924709334 0 0)
(-0.1071125152177776 0 0)
(-0.1069848100271716 0 0)
(-0.1065521351274629 0 0)
(-0.1056111177188573 0 0)
(-0.1039188912170464 0 0)
(-0.1012285108451843 0 0)
(-0.09729799455670898 0 0)
(-0.09190688037540069 0 0)
(-0.08487203551410241 0 0)
(-0.07606514218349739 0 0)
(-0.06542918470134905 0 0)
(-0.05298788966630549 0 0)
(-0.03884490666457619 0 0)
(-0.02317474613342253 0 0)
(-0.006206567211918358 0 0)
(0.01179866289847869 0 0)
(0.03056003736959945 0 0)
(0.04972294277141038 0 0)
(0.06864120548340297 0 0)
(0.08589234742122658 0 0)
(0.09884020787661717 0 0)
(0.1051357994917619 0 0)
(0.1064569654668391 0 0)
(0.106501765943642 0 0)
(0.1064165082323035 0 0)
(0.1061155160206112 0 0)
(0.1053770864879933 0 0)
(0.1039796329294924 0 0)
(0.1016766927526952 0 0)
(0.09822115044311026 0 0)
(0.09337591832945959 0 0)
(0.08693037535757772 0 0)
(0.07871690600001308 0 0)
(0.06862619101117873 0 0)
(0.05662040471755977 0 0)
(0.04274151123433941 0 0)
(0.02710948375806291 0 0)
(0.009909666783425522 0 0)
(-0.008620552561201755 0 0)
(-0.02818295447223021 0 0)
(-0.04834072858338037 0 0)
(-0.06826888706657279 0 0)
(-0.08621813965885561 0 0)
(-0.09917551640163119 0 0)
(-0.1049709439044993 0 0)
(-0.1060122701029706 0 0)
(-0.1060233318922186 0 0)
(-0.1059408784810994 0 0)
(-0.105606997131602 0 0)
(-0.104836561376906 0 0)
(-0.1034027187357222 0 0)
(-0.101072920707764 0 0)
(-0.09761621728424071 0 0)
(-0.09281642054310052 0 0)
(-0.08648507249466926 0 0)
(-0.07847630017142807 0 0)
(-0.06870102422218476 0 0)
(-0.05713634663824764 0 0)
(-0.04382866889579628 0 0)
(-0.02889163624384408 0 0)
(-0.0124975854137118 0 0)
(0.005138071719561088 0 0)
(0.0237644633645033 0 0)
(0.04305124988028435 0 0)
(0.06241264901619828 0 0)
(0.08058709532620456 0 0)
(0.09510254440872019 0 0)
(0.1031365762020907 0 0)
(0.1052888419056737 0 0)
(0.1054279943885265 0 0)
(0.1053741298910799 0 0)
(0.1051569925608251 0 0)
(0.1045715995669554 0 0)
(0.103412986400776 0 0)
(0.1014489015261189 0 0)
(0.09844311914181457 0 0)
(0.09416441093441406 0 0)
(0.0884002015588661 0 0)
(0.08096961118277068 0 0)
(0.07173620151281193 0 0)
(0.06062091474483251 0 0)
(0.04761242293395953 0 0)
(0.03276955925671669 0 0)
(0.01621595218941617 0 0)
(-0.001864089938622528 0 0)
(-0.02121331248497423 0 0)
(-0.04143959717442845 0 0)
(-0.06181450465540443 0 0)
(-0.08079410339250323 0 0)
(-0.09550581662624424 0 0)
(-0.1031035339571534 0 0)
(-0.104890124856049 0 0)
(-0.1049717615969156 0 0)
(-0.1049248021917599 0 0)
(-0.104675998960913 0 0)
(-0.1040573856282105 0 0)
(-0.1028538323176836 0 0)
(-0.1008454862374679 0 0)
(-0.09781021057475166 0 0)
(-0.09353626734787253 0 0)
(-0.08783302727573386 0 0)
(-0.08054354982129906 0 0)
(-0.07155646288234607 0 0)
(-0.06081485872655121 0 0)
(-0.04832183182344395 0 0)
(-0.03414240537721432 0 0)
(-0.01839939394521689 0 0)
(-0.001263491921557223 0 0)
(0.01704988282506685 0 0)
(0.03624582412226304 0 0)
(0.05581530044922705 0 0)
(0.07468764513805462 0 0)
(0.09066020806780607 0 0)
(0.1006551225066093 0 0)
(0.1040269122822894 0 0)
(0.1043815280719458 0 0)
(0.1043548670116633 0 0)
(0.1042071726225885 0 0)
(0.1037569909361246 0 0)
(0.1028100433372642 0 0)
(0.1011460161578354 0 0)
(0.09853860494538434 0 0)
(0.09476302728318634 0 0)
(0.0896074056271217 0 0)
(0.08288305900244872 0 0)
(0.07443541441362175 0 0)
(0.06415615328049423 0 0)
(0.05199373115466795 0 0)
(0.03795810884119256 0 0)
(0.0221208577359685 0 0)
(0.004617391371954411 0 0)
(-0.01433993082724736 0 0)
(-0.03441400977122709 0 0)
(-0.05498488672378524 0 0)
(-0.07474215190859505 0 0)
(-0.09108940769273614 0 0)
(-0.1007599401074891 0 0)
(-0.1036930904692708 0 0)
(-0.1039453785704805 0 0)
(-0.1039228969451456 0 0)
(-0.1037445456196277 0 0)
(-0.1032606870713384 0 0)
(-0.1022642134646728 0 0)
(-0.100546422700761 0 0)
(-0.09789238870255008 0 0)
(-0.09409400385596768 0 0)
(-0.08895941639948289 0 0)
(-0.08232432388486521 0 0)
(-0.07406213100625939 0 0)
(-0.06409150875992381 0 0)
(-0.0523826146428494 0 0)
(-0.03896190661295896 0 0)
(-0.02391145643142898 0 0)
(-0.007362102718782505 0 0)
(0.01050772371317151 0 0)
(0.02944333889666983 0 0)
(0.04901165534255728 0 0)
(0.06832856985800778 0 0)
(0.08552220902160242 0 0)
(0.09753523844151286 0 0)
(0.1025598892239043 0 0)
(0.1033611782005605 0 0)
(0.1033552283256191 0 0)
(0.1032672125631283 0 0)
(0.1029267531051532 0 0)
(0.1021638045762574 0 0)
(0.1007655549231713 0 0)
(0.09851524077933559 0 0)
(0.09519386008168525 0 0)
(0.09059036390379764 0 0)
(0.08451075493303156 0 0)
(0.07678817951275499 0 0)
(0.06729339865885281 0 0)
(0.05594418403383637 0 0)
(0.04271226422372867 0 0)
(0.02762802360948744 0 0)
(0.01078498323675016 0 0)
(-0.007649632973848082 0 0)
(-0.02739687256791802 0 0)
(-0.04794157294955131 0 0)
(-0.06820279716691852 0 0)
(-0.08594422613424836 0 0)
(-0.09779242051552971 0 0)
(-0.1023181019785853 0 0)
(-0.1029304770329481 0 0)
(-0.1029247148970127 0 0)
(-0.1028109747263977 0 0)
(-0.1024442356769784 0 0)
(-0.1016350700553419 0 0)
(-0.1001805775142242 0 0)
(-0.0978722236741328 0 0)
(-0.09450565221025072 0 0)
(-0.08988962520724425 0 0)
(-0.08385517631496527 0 0)
(-0.07626419611360713 0 0)
(-0.06701722562321324 0 0)
(-0.05606020865032813 0 0)
(-0.04338904247916265 0 0)
(-0.02905043070729366 0 0)
(-0.0131400850874405 0 0)
(0.00419568479394818 0 0)
(0.0227408307463136 0 0)
(0.04213712863943125 0 0)
(0.06167191686316693 0 0)
(0.07980462573573936 0 0)
(0.09370803572969527 0 0)
(0.1007203709084151 0 0)
(0.1023007924231174 0 0)
(0.1023658005134715 0 0)
(0.1023142109208644 0 0)
(0.1020734883306291 0 0)
(0.1014743101653323 0 0)
(0.1003170170328219 0 0)
(0.09839082637306036 0 0)
(0.09548165576551861 0 0)
(0.09138064540554383 0 0)
(0.08589130500377479 0 0)
(0.07883840047734164 0 0)
(0.0700781406683287 0 0)
(0.05950673885106307 0 0)
(0.04706637971606354 0 0)
(0.03275171342034473 0 0)
(0.01661867711781271 0 0)
(-0.001204625488482647 0 0)
(-0.02049140395173671 0 0)
(-0.04082334425680691 0 0)
(-0.06132858382148571 0 0)
(-0.08014894557559918 0 0)
(-0.0940833272171504 0 0)
(-0.1006103490123944 0 0)
(-0.1019051541267554 0 0)
(-0.1019462144559503 0 0)
(-0.1018723455840439 0 0)
(-0.101606836621063 0 0)
(-0.1009595285371591 0 0)
(-0.09974184766415646 0 0)
(-0.09774937962518798 0 0)
(-0.09478076176765134 0 0)
(-0.09064448778596021 0 0)
(-0.08516782820452518 0 0)
(-0.0782040850889868 0 0)
(-0.06963936628054267 0 0)
(-0.05939999978505951 0 0)
(-0.0474584020377261 0 0)
(-0.03383419968908834 0 0)
(-0.01859292611860035 0 0)
(-0.001849752356107794 0 0)
(0.01621380483119361 0 0)
(0.03529950136685717 0 0)
(0.05483856985497537 0 0)
(0.07360345923923729 0 0)
(0.08914168255540941 0 0)
(0.09835149107961111 0 0)
(0.1011551157370708 0 0)
(0.10139814772444 0 0)
(0.1013773540815754 0 0)
(0.1012075460449972 0 0)
(0.1007475453466292 0 0)
(0.09979935895236827 0 0)
(0.09816258038055997 0 0)
(0.09562778655168314 0 0)
(0.09198794519351917 0 0)
(0.08704518677308851 0 0)
(0.08061868360324882 0 0)
(0.07255287669358416 0 0)
(0.06272569259361256 0 0)
(0.05105639422335628 0 0)
(0.03751298891698197 0 0)
(0.02211952532680309 0 0)
(0.004966075552172662 0 0)
(-0.01376744053290175 0 0)
(-0.03374124537051536 0 0)
(-0.05426132561536171 0 0)
(-0.07383420892756444 0 0)
(-0.08961701609589992 0 0)
(-0.09841384700163808 0 0)
(-0.1008030939306962 0 0)
(-0.1009669805944521 0 0)
(-0.1009309098626991 0 0)
(-0.1007455257039188 0 0)
(-0.1002444271368673 0 0)
(-0.09924094076858316 0 0)
(-0.09753699838614623 0 0)
(-0.09493378090931363 0 0)
(-0.09124033247389432 0 0)
(-0.08628113574678531 0 0)
(-0.07990304029947583 0 0)
(-0.07198206620620007 0 0)
(-0.06242987124386497 0 0)
(-0.05119873601113806 0 0)
(-0.03828435548267739 0 0)
(-0.02372759471543868 0 0)
(-0.007617794010846359 0 0)
(0.009896873919853376 0 0)
(0.0285733010014615 0 0)
(0.04795816861994981 0 0)
(0.06708432677657268 0 0)
(0.0839184106458663 0 0)
(0.09531604317145066 0 0)
(0.09979098280361437 0 0)
(0.1004283467196274 0 0)
(0.1004263224238465 0 0)
(0.10032145871613 0 0)
(0.09998052700634821 0 0)
(0.09922135313488581 0 0)
(0.09784815914827508 0 0)
(0.0956564742798737 0 0)
(0.09244143883710317 0 0)
(0.08800429534407853 0 0)
(0.08216030317923569 0 0)
(0.07474649245445875 0 0)
(0.06562818624439616 0 0)
(0.05470589562211845 0 0)
(0.04192433119888155 0 0)
(0.02728135627473989 0 0)
(0.01083575257944138 0 0)
(-0.007275441269134179 0 0)
(-0.02678198205797486 0 0)
(-0.04713220435566616 0 0)
(-0.06714217170473254 0 0)
(-0.08441602977591162 0 0)
(-0.09555262964980503 0 0)
(-0.09952739946449519 0 0)
(-0.100004290088101 0 0)
(-0.09998356356077463 0 0)
(-0.09986687263167852 0 0)
(-0.09948571526459968 0 0)
(-0.09867155857180884 0 0)
(-0.09722902460152083 0 0)
(-0.09496309993473492 0 0)
(-0.09168282852334268 0 0)
(-0.08720974475157799 0 0)
(-0.08138475773837907 0 0)
(-0.0740747769229715 0 0)
(-0.06517872857611376 0 0)
(-0.05463262362188783 0 0)
(-0.04241338751181351 0 0)
(-0.02854155930756352 0 0)
(-0.01308415666033859 0 0)
(0.003837645186117162 0 0)
(0.02202217598356723 0 0)
(0.04110482071754359 0 0)
(0.06033335190278342 0 0)
(0.07809257976933054 0 0)
(0.09150994800207343 0 0)
(0.09808130129795092 0 0)
(0.09949600535752638 0 0)
(0.09954955554208837 0 0)
(0.0995007386376215 0 0)
(0.09928414358070869 0 0)
(0.09874595164520193 0 0)
(0.09771408489287342 0 0)
(0.09600966640776414 0 0)
(0.0934584350015893 0 0)
(0.08990057836227092 0 0)
(0.08520101260873757 0 0)
(0.07926063973514563 0 0)
(0.07202862772448358 0 0)
(0.06351619663245187 0 0)
(0.05381408237263966 0 0)
(0.04312149231876634 0 0)
(0.03180880678876676 0 0)
(0.02055906365547103 0 0)
(0.01060031629880359 0 0)
(0.003663095223556592 0 0)
(0.0006365150472722038 0 0)
(3.773070747837929e-05 0 0)
(4.977773582107693e-07 0 0)
(9.711315069617807e-10 0 0)
(-3.154660900866331e-12 0 0)
(-3.319780892922644e-12 0 0)
(-3.285018789331445e-12 0 0)
(-3.067755641889373e-12 0 0)
(-3.102517745479953e-12 0 0)
(-3.085136693684447e-12 0 0)
(-3.267637737536464e-12 0 0)
(-3.406686151899683e-12 0 0)
(-3.42406720369508e-12 0 0)
(-3.285018789331833e-12 0 0)
(-3.328471418820097e-12 0 0)
(-3.397995626001887e-12 0 0)
(-3.563115618058502e-12 0 0)
(-3.597877721648796e-12 0 0)
(-3.510972462672122e-12 0 0)
(-3.406686151899726e-12 0 0)
(-3.46751983318364e-12 0 0)
(-3.563115618058407e-12 0 0)
(-3.589187195751085e-12 0 0)
(-3.484900884979133e-12 0 0)
(-3.537044040365109e-12 0 0)
(-3.467519833183354e-12 0 0)
(-3.528353514467559e-12 0 0)
(-3.554425092160704e-12 0 0)
(-3.537044040365268e-12 0 0)
(-3.51966298856973e-12 0 0)
(-3.537044040365103e-12 0 0)
(-3.62394929934213e-12 0 0)
(-3.728235610114863e-12 0 0)
(-3.745616661909757e-12 0 0)
(-3.736926136012538e-12 0 0)
(-4.023713490636605e-12 0 0)
(-4.093237697818209e-12 0 0)
(-4.197524008590778e-12 0 0)
(-4.310500845260354e-12 0 0)
(-4.26704821577245e-12 0 0)
(-4.301810319362986e-12 0 0)
(-4.388715578339909e-12 0 0)
(-4.293119793465376e-12 0 0)
(-4.310500845260701e-12 0 0)
(-4.371334526544905e-12 0 0)
(-4.484311363214976e-12 0 0)
(-4.458239785521497e-12 0 0)
(-4.501692415010146e-12 0 0)
(-4.510382940908206e-12 0 0)
(-4.380025052441967e-12 0 0)
(-4.310500845260787e-12 0 0)
(-4.362644000647166e-12 0 0)
(-4.232286112181618e-12 0 0)
(-4.223595586283876e-12 0 0)
(-4.127999801408643e-12 0 0)
(-4.180142956795489e-12 0 0)
(-4.33657242295384e-12 0 0)
(-4.275738741669787e-12 0 0)
(-4.188833482693194e-12 0 0)
(-3.988951387045893e-12 0 0)
(-4.058475594227432e-12 0 0)
(-3.988951387045844e-12 0 0)
(-3.971570335250272e-12 0 0)
(-3.884665076273136e-12 0 0)
(-3.806450343194417e-12 0 0)
(-3.641330351137308e-12 0 0)
(-3.528353514467639e-12 0 0)
(-3.528353514467531e-12 0 0)
(-3.467519833183596e-12 0 0)
(-3.450138781388404e-12 0 0)
(-3.528353514467169e-12 0 0)
(-3.493591410877117e-12 0 0)
(-3.345852470615573e-12 0 0)
(-3.363233522411188e-12 0 0)
(-3.406686151899774e-12 0 0)
(-3.380614574206596e-12 0 0)
(-3.589187195751778e-12 0 0)
(-3.615258773444725e-12 0 0)
(-3.589187195751524e-12 0 0)
(-3.615258773444515e-12 0 0)
(-3.615258773445025e-12 0 0)
(-3.563115618058045e-12 0 0)
(-3.432757729592921e-12 0 0)
(-3.493591410876919e-12 0 0)
(-3.389305100104554e-12 0 0)
(-3.328471418820438e-12 0 0)
(-3.189423004456819e-12 0 0)
(-3.250256685741502e-12 0 0)
(-3.21549458215021e-12 0 0)
(-3.206804056252604e-12 0 0)
(-3.354542996513616e-12 0 0)
(-3.337161944718413e-12 0 0)
(-3.363233522411278e-12 0 0)
(-3.328471418820484e-12 0 0)
(-3.337161944718255e-12 0 0)
(-3.145970374968566e-12 0 0)
(-3.137279849071391e-12 0 0)
(-3.032993538298351e-12 0 0)
(-2.876564072140075e-12 0 0)
(-3.050374590094117e-12 0 0)
(-2.89394512393534e-12 0 0)
(-2.902635649833214e-12 0 0)
(-2.859183020344657e-12 0 0)
(-3.093827219582656e-12 0 0)
(-3.024303012400496e-12 0 0)
(-3.154660900866647e-12 0 0)
(-3.154660900866525e-12 0 0)
(-3.206804056252676e-12 0 0)
(-3.11989879727581e-12 0 0)
(-3.024303012401106e-12 0 0)
(-3.050374590094219e-12 0 0)
(-2.850492494446458e-12 0 0)
(-2.972159857014929e-12 0 0)
(-2.937397753424026e-12 0 0)
(-3.09382721958323e-12 0 0)
(-3.111208271378018e-12 0 0)
(-3.059065115992012e-12 0 0)
(-3.154660900866021e-12 0 0)
(-3.17204195266199e-12 0 0)
(-3.206804056252917e-12 0 0)
(-3.032993538298946e-12 0 0)
(-3.024303012401105e-12 0 0)
(-2.920016701628589e-12 0 0)
(-2.824420916754036e-12 0 0)
(-2.807039864958031e-12 0 0)
(-2.989540908810391e-12 0 0)
(-3.163351426764459e-12 0 0)
(-3.189423004457632e-12 0 0)
(-3.285018789332117e-12 0 0)
(-3.285018789332148e-12 0 0)
(-3.450138781388676e-12 0 0)
(-3.476210359081786e-12 0 0)
(-3.702164032421978e-12 0 0)
(-3.910736653966277e-12 0 0)
(-3.962879809353266e-12 0 0)
(-4.05847559422771e-12 0 0)
(-4.101928223716376e-12 0 0)
(-4.154071379102638e-12 0 0)
(-4.015022964739341e-12 0 0)
(-3.928117705762322e-12 0 0)
(-3.745616661909736e-12 0 0)
(-3.736926136012937e-12 0 0)
(-3.797759817296684e-12 0 0)
(-3.797759817296771e-12 0 0)
(-3.789069291398985e-12 0 0)
(-3.676092454728829e-12 0 0)
(-3.745616661910617e-12 0 0)
(-3.51966298857011e-12 0 0)
(-3.502281936774982e-12 0 0)
(-3.484900884978778e-12 0 0)
(-3.537044040365704e-12 0 0)
(-3.580496669854117e-12 0 0)
(-3.389305100104843e-12 0 0)
(-3.40668615190008e-12 0 0)
(-3.345852470616105e-12 0 0)
(-3.406686151900198e-12 0 0)
(-3.345852470615621e-12 0 0)
(-3.380614574207042e-12 0 0)
(-3.450138781388683e-12 0 0)
(-3.510972462672593e-12 0 0)
(-3.580496669854117e-12 0 0)
(-3.632639825240321e-12 0 0)
(-3.8151408690921e-12 0 0)
(-3.745616661910671e-12 0 0)
(-3.658711402933572e-12 0 0)
(-3.658711402932839e-12 0 0)
(-3.667401928831402e-12 0 0)
(-3.589187195751783e-12 0 0)
(-3.571806143956498e-12 0 0)
(-3.623949299342722e-12 0 0)
(-3.484900884979388e-12 0 0)
(-3.510972462672731e-12 0 0)
(-3.458829307285872e-12 0 0)
(-3.537044040365783e-12 0 0)
(-3.667401928831309e-12 0 0)
(-3.771688239603841e-12 0 0)
(-3.919427179864669e-12 0 0)
(-3.997641912943888e-12 0 0)
(-3.988951387046518e-12 0 0)
(-3.910736653966936e-12 0 0)
(-4.006332438841854e-12 0 0)
(-3.988951387045697e-12 0 0)
(-4.171452430898191e-12 0 0)
(-4.05847559422792e-12 0 0)
(-3.954189283455506e-12 0 0)
(-3.945498757557803e-12 0 0)
(-3.815140869092289e-12 0 0)
(-3.893355602171599e-12 0 0)
(-3.962879809352476e-12 0 0)
(-4.00633243884173e-12 0 0)
(-4.18014295679567e-12 0 0)
(-4.397406104238344e-12 0 0)
(-4.475620837317783e-12 0 0)
(-4.562526096294605e-12 0 0)
(-4.65812188116942e-12 0 0)
(-4.60597872578306e-12 0 0)
(-4.805860821430442e-12 0 0)
(-4.788479769634035e-12 0 0)
(-4.858003976816569e-12 0 0)
(-4.962290287589079e-12 0 0)
(-5.005742917077505e-12 0 0)
(-4.953599761691281e-12 0 0)
(-4.997052391179896e-12 0 0)
(-5.118719753747822e-12 0 0)
(-5.205625012724167e-12 0 0)
(-5.283839745804102e-12 0 0)
(-5.249077642213261e-12 0 0)
(-5.344673427087985e-12 0 0)
(-5.370745004780561e-12 0 0)
(-5.379435530678793e-12 0 0)
(-5.414197634269606e-12 0 0)
(-5.422888160167441e-12 0 0)
(-5.483721841450497e-12 0 0)
(-5.475031315553671e-12 0 0)
(-5.457650263757858e-12 0 0)
(-5.431578686065104e-12 0 0)
(-5.379435530678048e-12 0 0)
(-5.42288816016727e-12 0 0)
(-5.396816582474263e-12 0 0)
(-5.257768168110636e-12 0 0)
(-5.214315538622042e-12 0 0)
(-5.275149219906037e-12 0 0)
(-5.144791331440778e-12 0 0)
(-5.205625012724713e-12 0 0)
(-5.335982901189664e-12 0 0)
(-5.353363952985658e-12 0 0)
(-5.414197634269569e-12 0 0)
(-5.431578686064993e-12 0 0)
(-5.353363952985699e-12 0 0)
(-5.249077642212713e-12 0 0)
(-5.318601849394916e-12 0 0)
(-5.266458694008819e-12 0 0)
(-5.318601849394598e-12 0 0)
(-5.344673427087621e-12 0 0)
(-5.40550710837164e-12 0 0)
(-5.301220797599479e-12 0 0)
(-5.092648176054589e-12 0 0)
(-5.144791331440293e-12 0 0)
(-5.075267124259194e-12 0 0)
(-5.205625012724725e-12 0 0)
(-5.301220797599448e-12 0 0)
(-5.431578686064429e-12 0 0)
(-5.466340789655825e-12 0 0)
(-5.544555522735146e-12 0 0)
(-5.483721841451394e-12 0 0)
(-5.448959737859877e-12 0 0)
(-5.518483945041793e-12 0 0)
(-5.501102893246799e-12 0 0)
(-5.62277025581421e-12 0 0)
(-5.492412367348395e-12 0 0)
(-5.553246048632863e-12 0 0)
(-5.448959737860441e-12 0 0)
(-5.388126056576494e-12 0 0)
(-5.38812605657652e-12 0 0)
(-5.422888160166957e-12 0 0)
(-5.440269211962443e-12 0 0)
(-5.35336395298583e-12 0 0)
(-5.483721841450944e-12 0 0)
(-5.431578686064466e-12 0 0)
(-5.553246048632957e-12 0 0)
(-5.553246048632535e-12 0 0)
(-5.553246048632856e-12 0 0)
(-5.553246048632256e-12 0 0)
(-5.596698678121339e-12 0 0)
(-5.692294462996114e-12 0 0)
(-5.561936574530542e-12 0 0)
(-5.631460781711544e-12 0 0)
(-5.640151307609868e-12 0 0)
(-5.69229446299608e-12 0 0)
(-5.779199721973172e-12 0 0)
(-5.857414455052062e-12 0 0)
(-5.909557610438357e-12 0 0)
(-5.874795506847853e-12 0 0)
(-5.918248136336394e-12 0 0)
(-5.935629188131369e-12 0 0)
(-6.039915498903922e-12 0 0)
(-6.065987076597312e-12 0 0)
(-6.083368128392704e-12 0 0)
(-6.100749180188099e-12 0 0)
(-6.00515339531279e-12 0 0)
(-6.118130231983538e-12 0 0)
(-6.074677602495151e-12 0 0)
(-6.048606024801601e-12 0 0)
(-5.857414455051862e-12 0 0)
(-5.935629188131894e-12 0 0)
(-5.909557610438693e-12 0 0)
(-5.970391291722276e-12 0 0)
(-6.022534447108014e-12 0 0)
(-5.996462869415859e-12 0 0)
(-5.935629188131855e-12 0 0)
(-5.883486032745632e-12 0 0)
(-5.996462869415322e-12 0 0)
(-5.805271299665961e-12 0 0)
(-5.796580773768629e-12 0 0)
(-5.77919972197334e-12 0 0)
(-5.666222885302525e-12 0 0)
(-5.709675514791284e-12 0 0)
(-5.666222885303107e-12 0 0)
(-5.718366040689026e-12 0 0)
(-5.648841833507369e-12 0 0)
(-5.535864996837519e-12 0 0)
(-5.440269211962468e-12 0 0)
)
;

boundaryField
{
    inlet
    {
        type            zeroGradient;
    }
    outlet
    {
        type            pressureInletOutletVelocity;
        value           uniform (-5.440269211962468e-12 0 0);
    }
    frontAndBack
    {
        type            empty;
    }
}


// ************************************************************************* //
