/*--------------------------------*- C++ -*----------------------------------*\
| =========                 |                                                 |
| \\      /  F ield         | OpenFOAM: The Open Source CFD Toolbox           |
|  \\    /   O peration     | Version:  v2012                                 |
|   \\  /    A nd           | Website:  www.openfoam.com                      |
|    \\/     M anipulation  |                                                 |
\*---------------------------------------------------------------------------*/
FoamFile
{
    version     2.0;
    format      ascii;
    class       volVectorField;
    location    "0.005";
    object      UMean;
}
// * * * * * * * * * * * * * * * * * * * * * * * * * * * * * * * * * * * * * //

dimensions      [0 1 -1 0 0 0 0];


internalField   nonuniform List<vector> 
1000
(
(-5.106792215993006e-05 0 0)
(2.751835635990172e-05 0 0)
(6.370081150849403e-05 0 0)
(0.0001402888541936433 0 0)
(0.0002297121907296533 0 0)
(0.0003371622331576001 0 0)
(0.0004652776616578147 0 0)
(0.0006066015973315723 0 0)
(0.0007640385676116088 0 0)
(0.0009308327686833375 0 0)
(0.00110367439595641 0 0)
(0.001276390726429244 0 0)
(0.001448918868441887 0 0)
(0.001618700234755106 0 0)
(0.001784042975666715 0 0)
(0.001940402077165525 0 0)
(0.002085389903834014 0 0)
(0.002215079786044191 0 0)
(0.002328049232379193 0 0)
(0.002421399597863409 0 0)
(0.002494464996604503 0 0)
(0.002544984300449059 0 0)
(0.002572925458415126 0 0)
(0.002576876184280097 0 0)
(0.002557547420421972 0 0)
(0.002514499816446037 0 0)
(0.002449366146390661 0 0)
(0.002362553998507949 0 0)
(0.002256116425615217 0 0)
(0.00213061507821814 0 0)
(0.001988108783552669 0 0)
(0.001830484289334076 0 0)
(0.001663871344733986 0 0)
(0.001494107861191693 0 0)
(0.001324611784888402 0 0)
(0.001155463090413744 0 0)
(0.0009880751938379814 0 0)
(0.0008242531995201376 0 0)
(0.0006669214358426302 0 0)
(0.0005193555948851465 0 0)
(0.0003851505726375115 0 0)
(0.0002674273801889726 0 0)
(0.0001688588083721179 0 0)
(9.127450460524387e-05 0 0)
(3.604701898020863e-05 0 0)
(3.953026303969098e-06 0 0)
(-4.503363212644541e-06 0 0)
(1.072256913330817e-05 0 0)
(4.938878659110042e-05 0 0)
(0.0001108214619032846 0 0)
(0.0001941692634655863 0 0)
(0.0002984542120489327 0 0)
(0.0004227499201075595 0 0)
(0.0005655310165515872 0 0)
(0.0007231870733290039 0 0)
(0.0008889567098059528 0 0)
(0.00105664140519981 0 0)
(0.001224250045724236 0 0)
(0.001391462795468269 0 0)
(0.001557028722330257 0 0)
(0.001719650832790975 0 0)
(0.001876506213100275 0 0)
(0.002025022035495162 0 0)
(0.002161407899523727 0 0)
(0.002282734887483636 0 0)
(0.002385577481057023 0 0)
(0.002467959459754226 0 0)
(0.002527795381319217 0 0)
(0.002564508462760574 0 0)
(0.002577287772010041 0 0)
(0.002566557617157527 0 0)
(0.002532250301224719 0 0)
(0.002475312168900239 0 0)
(0.002395984361732474 0 0)
(0.002295246428170105 0 0)
(0.002173469718045653 0 0)
(0.002032645885007106 0 0)
(0.001876510257366177 0 0)
(0.00171256673139387 0 0)
(0.001546620228862312 0 0)
(0.001380863959281201 0 0)
(0.001215443984065191 0 0)
(0.001051297065227065 0 0)
(0.0008897968081404001 0 0)
(0.000733053857561072 0 0)
(0.0005837223208897197 0 0)
(0.000444964726701449 0 0)
(0.0003200623078372462 0 0)
(0.0002122763684836306 0 0)
(0.0001243720611561431 0 0)
(5.856595496737368e-05 0 0)
(1.62552740751733e-05 0 0)
(-1.807901279091857e-06 0 0)
(4.429587908005172e-06 0 0)
(3.472614701411606e-05 0 0)
(8.850544162907801e-05 0 0)
(0.0001652651160250725 0 0)
(0.0002644235644313394 0 0)
(0.0003852758434048917 0 0)
(0.0005259005359790478 0 0)
(0.0006815587228025111 0 0)
(0.0008445455234330498 0 0)
(0.001009026892880983 0 0)
(0.001173410416819805 0 0)
(0.001337493701545714 0 0)
(0.0015002631502225 0 0)
(0.001660732210135957 0 0)
(0.00181666632042127 0 0)
(0.001965942509888732 0 0)
(0.002105321571099662 0 0)
(0.002231973345040227 0 0)
(0.002342393462948921 0 0)
(0.002434007728379902 0 0)
(0.002504099496803185 0 0)
(0.002551296348473832 0 0)
(0.002574275158312818 0 0)
(0.002573049471318959 0 0)
(0.002547460248625608 0 0)
(0.002498284255071778 0 0)
(0.002425705449342289 0 0)
(0.002330531414077776 0 0)
(0.002213148471448765 0 0)
(0.002075708005234579 0 0)
(0.001922485389510189 0 0)
(0.001761396832043506 0 0)
(0.001598333860963362 0 0)
(0.001435425358611076 0 0)
(0.001272743773956947 0 0)
(0.001111081128960352 0 0)
(0.0009514712892796086 0 0)
(0.0007956765876626301 0 0)
(0.0006458402370349801 0 0)
(0.0005047379573484735 0 0)
(0.0003753219068043171 0 0)
(0.0002608370292017892 0 0)
(0.000164255907945259 0 0)
(8.835965152745029e-05 0 0)
(3.518509805260736e-05 0 0)
(6.238938483874806e-06 0 0)
(2.150023872320336e-06 0 0)
(2.313422334623037e-05 0 0)
(6.884508065349566e-05 0 0)
(0.0001389300805166503 0 0)
(0.0002327658938655383 0 0)
(0.0003495644084366735 0 0)
(0.0004870178707989929 0 0)
(0.0006399727741096652 0 0)
(0.000800314023610687 0 0)
(0.0009622018770570308 0 0)
(0.001124004148913625 0 0)
(0.00128558017265986 0 0)
(0.001446096223944269 0 0)
(0.001604751951112403 0 0)
(0.001759678700473643 0 0)
(0.001909093227506659 0 0)
(0.002050166337791801 0 0)
(0.002180342283403449 0 0)
(0.002296288681602329 0 0)
(0.002395332464742936 0 0)
(0.002474469273700192 0 0)
(0.002531777441693111 0 0)
(0.002565343206994 0 0)
(0.00257451784283479 0 0)
(0.002558653243687222 0 0)
(0.002518131208321724 0 0)
(0.002452978273185301 0 0)
(0.0023639511791472 0 0)
(0.002251550086805244 0 0)
(0.002118096121170756 0 0)
(0.001968094274977863 0 0)
(0.001809689912623527 0 0)
(0.001649075494026541 0 0)
(0.001488564305943506 0 0)
(0.001328189707124644 0 0)
(0.001168631008985483 0 0)
(0.001010696145991603 0 0)
(0.0008558880979474256 0 0)
(0.0007060006170005461 0 0)
(0.000563478287045605 0 0)
(0.0004309466363466934 0 0)
(0.0003114720231664312 0 0)
(0.0002079762747637159 0 0)
(0.0001234506236918717 0 0)
(6.0313291427112e-05 0 0)
(2.067147648209291e-05 0 0)
(5.785999410884072e-06 0 0)
(1.652115088065223e-05 0 0)
(5.302347573740323e-05 0 0)
(0.0001152824927795267 0 0)
(0.0002027976138392409 0 0)
(0.0003147265575153712 0 0)
(0.0004484957854583006 0 0)
(0.0005985902154849721 0 0)
(0.0007565127393438072 0 0)
(0.0009161633113190468 0 0)
(0.001075755403379195 0 0)
(0.001235197187177967 0 0)
(0.001393756069351334 0 0)
(0.001550807428702362 0 0)
(0.001704727203419485 0 0)
(0.001854006682474908 0 0)
(0.001996140834666395 0 0)
(0.002128836084351162 0 0)
(0.002248991746368844 0 0)
(0.002353994574076819 0 0)
(0.002440768290401303 0 0)
(0.002507094646054497 0 0)
(0.002550638880567271 0 0)
(0.002570193818981303 0 0)
(0.002564547666981886 0 0)
(0.002533569572110792 0 0)
(0.002476910417434291 0 0)
(0.002395107034734977 0 0)
(0.002288615365858592 0 0)
(0.002159790531940875 0 0)
(0.002013267839941823 0 0)
(0.00185742171755217 0 0)
(0.001698958154151328 0 0)
(0.001540518054613922 0 0)
(0.001382153355995514 0 0)
(0.001224453501681138 0 0)
(0.001068048433852415 0 0)
(0.0009142437328292199 0 0)
(0.0007645531900724421 0 0)
(0.0006211511843193123 0 0)
(0.0004863660268432348 0 0)
(0.0003630507690714164 0 0)
(0.0002539929825269614 0 0)
(0.0001622119011396379 0 0)
(9.031711236337186e-05 0 0)
(4.079247505630357e-05 0 0)
(1.541163198708088e-05 0 0)
(1.563702598357912e-05 0 0)
(4.218340753732074e-05 0 0)
(9.553555868601232e-05 0 0)
(0.0001755149271249096 0 0)
(0.0002814428690734395 0 0)
(0.0004107178969778496 0 0)
(0.0005576275932797559 0 0)
(0.0007132354431772294 0 0)
(0.0008708943363436673 0 0)
(0.001028545338228721 0 0)
(0.001186091947576102 0 0)
(0.001342915991193347 0 0)
(0.001498502787583898 0 0)
(0.001651438008415753 0 0)
(0.001800419089567047 0 0)
(0.001943215903168741 0 0)
(0.002077768214908595 0 0)
(0.002201214402500475 0 0)
(0.002311057290752962 0 0)
(0.002404265638455469 0 0)
(0.002478476879588654 0 0)
(0.002531107110679164 0 0)
(0.002560518673119122 0 0)
(0.002565036144360286 0 0)
(0.002543991847197462 0 0)
(0.002496610055221959 0 0)
(0.002423047677926549 0 0)
(0.002323540986422966 0 0)
(0.002200257319611364 0 0)
(0.002057738975307667 0 0)
(0.001904528957366325 0 0)
(0.001748043642285001 0 0)
(0.001591465389982783 0 0)
(0.001434912408510018 0 0)
(0.001278895765664919 0 0)
(0.001123914502126869 0 0)
(0.000971107976094578 0 0)
(0.0008217724562064108 0 0)
(0.0006778457129474622 0 0)
(0.0005414060373020039 0 0)
(0.0004150839344931574 0 0)
(0.0003015040817837991 0 0)
(0.0002036222216108203 0 0)
(0.0001241156043796291 0 0)
(6.56882531269457e-05 0 0)
(3.047591475823778e-05 0 0)
(2.041943010521308e-05 0 0)
(3.675994488213779e-05 0 0)
(8.050260697334625e-05 0 0)
(0.0001519096103879804 0 0)
(0.0002506439815761317 0 0)
(0.0003743430001007358 0 0)
(0.0005173943486675589 0 0)
(0.000670554262673903 0 0)
(0.0008263651701336214 0 0)
(0.0009822605303387334 0 0)
(0.001138083139823563 0 0)
(0.001293324811940889 0 0)
(0.001447544794543162 0 0)
(0.001599522927013904 0 0)
(0.001748102569494779 0 0)
(0.001891304945048815 0 0)
(0.002027251962256788 0 0)
(0.002153321155111164 0 0)
(0.002267140604650896 0 0)
(0.002365792401219899 0 0)
(0.002446856306390013 0 0)
(0.002507628899570118 0 0)
(0.00254616560528988 0 0)
(0.002560447558249739 0 0)
(0.002549334997421568 0 0)
(0.002511641460390491 0 0)
(0.002447083290906691 0 0)
(0.002355573958927604 0 0)
(0.002238876276125548 0 0)
(0.002101178583084951 0 0)
(0.00195093147979521 0 0)
(0.00179637896024245 0 0)
(0.001641514874258601 0 0)
(0.001486638011106409 0 0)
(0.001332187007976613 0 0)
(0.001178554665672132 0 0)
(0.001026739764838032 0 0)
(0.0008778601298986923 0 0)
(0.0007336567717286708 0 0)
(0.0005959862703531212 0 0)
(0.0004672819554299647 0 0)
(0.0003499856386822734 0 0)
(0.0002469566564999133 0 0)
(0.0001608506152111338 0 0)
(9.448981590842614e-05 0 0)
(5.023815024683338e-05 0 0)
(3.039627625430362e-05 0 0)
(3.663252224852149e-05 0 0)
(7.042949263841286e-05 0 0)
(0.0001325023827919614 0 0)
(0.0002229668264191216 0 0)
(0.0003399150617499611 0 0)
(0.0004782172226337321 0 0)
(0.0006285774255047841 0 0)
(0.0007825841909074732 0 0)
(0.0009368317008670734 0 0)
(0.001091046878626169 0 0)
(0.001244793028408698 0 0)
(0.001397718187768492 0 0)
(0.001548742222811664 0 0)
(0.001696853065062174 0 0)
(0.001840263645532392 0 0)
(0.001977271383628446 0 0)
(0.002105457068027852 0 0)
(0.002222588931845488 0 0)
(0.002325877432359816 0 0)
(0.002412908065750628 0 0)
(0.002480937936343216 0 0)
(0.002527822656833467 0 0)
(0.002551303644576712 0 0)
(0.002549861483259607 0 0)
(0.002521960512796791 0 0)
(0.002466887860148087 0 0)
(0.002384191712266847 0 0)
(0.00227510094655646 0 0)
(0.002143201528731843 0 0)
(0.001996486015188765 0 0)
(0.001843957368117423 0 0)
(0.00169070268734126 0 0)
(0.00153741760655533 0 0)
(0.0013844452203671 0 0)
(0.001232129888414423 0 0)
(0.001081298688310781 0 0)
(0.000932971401497166 0 0)
(0.0007886639413204683 0 0)
(0.0006500991681471705 0 0)
(0.0005194718223384291 0 0)
(0.0003991066377024484 0 0)
(0.0002916892525500888 0 0)
(0.0001998644672211914 0 0)
(0.0001264430201376564 0 0)
(7.396960227772019e-05 0 0)
(4.494605048567237e-05 0 0)
(4.140911647224685e-05 0 0)
(6.519475631874174e-05 0 0)
(0.0001174783754512632 0 0)
(0.0001988145377276709 0 0)
(0.0003079301968731053 0 0)
(0.0004404387278808874 0 0)
(0.0005874359081644822 0 0)
(0.0007395470983363643 0 0)
(0.0008922248646823499 0 0)
(0.00104488822799656 0 0)
(0.001197203584830965 0 0)
(0.001348855450578921 0 0)
(0.001498928786211461 0 0)
(0.001646494308483878 0 0)
(0.001789970589415135 0 0)
(0.001927768945352987 0 0)
(0.002057687115620475 0 0)
(0.002177595433379764 0 0)
(0.002284869340508096 0 0)
(0.002377110842671584 0 0)
(0.002451611152133899 0 0)
(0.00250608912030359 0 0)
(0.002538143890073966 0 0)
(0.002545961489890522 0 0)
(0.002527732983556045 0 0)
(0.002482368146665591 0 0)
(0.002409048176684357 0 0)
(0.002308434621362384 0 0)
(0.002183332706892906 0 0)
(0.002040937924248817 0 0)
(0.001890681948721072 0 0)
(0.00173901066787211 0 0)
(0.001587247781814668 0 0)
(0.001435726216848179 0 0)
(0.001284697422784215 0 0)
(0.001134886954992191 0 0)
(0.0009871752443253656 0 0)
(0.0008429349635761042 0 0)
(0.0007037191765048776 0 0)
(0.0005715612828346699 0 0)
(0.0004486236839133949 0 0)
(0.0003374658142798689 0 0)
(0.0002406452011942357 0 0)
(0.0001609583173853355 0 0)
(0.0001010138468716653 0 0)
(6.346743249469912e-05 0 0)
(5.05916677966027e-05 0 0)
(6.452402433615999e-05 0 0)
(0.0001068058638032372 0 0)
(0.0001784351539846089 0 0)
(0.0002787892792547202 0 0)
(0.0004044320159340211 0 0)
(0.0005472638181676315 0 0)
(0.0006972526517106926 0 0)
(0.00084839309475564 0 0)
(0.0009995604556966482 0 0)
(0.001150465375344204 0 0)
(0.001300865475977462 0 0)
(0.001449952343873859 0 0)
(0.00159691359293025 0 0)
(0.001740309685031529 0 0)
(0.001878690571137441 0 0)
(0.002010014251565396 0 0)
(0.0021322786500531 0 0)
(0.002242992546894028 0 0)
(0.002339819132711492 0 0)
(0.002420096348023933 0 0)
(0.002481478545785885 0 0)
(0.002521478083094305 0 0)
(0.002538072443586178 0 0)
(0.002529249748796229 0 0)
(0.002493600575990933 0 0)
(0.002429988444171507 0 0)
(0.002338510488309146 0 0)
(0.002221155725544819 0 0)
(0.002084006574796286 0 0)
(0.001936482678273609 0 0)
(0.001786413745087805 0 0)
(0.00163614471074173 0 0)
(0.00148604092064455 0 0)
(0.001336303022014192 0 0)
(0.001187534702418787 0 0)
(0.001040521117033403 0 0)
(0.000896478473171412 0 0)
(0.000756838286119392 0 0)
(0.0006234582589480346 0 0)
(0.0004983789172595582 0 0)
(0.000384003210894423 0 0)
(0.0002828173689226864 0 0)
(0.0001975425012319932 0 0)
(0.0001308290868362989 0 0)
(8.539079513960051e-05 0 0)
(6.368587679633879e-05 0 0)
(6.805057350941333e-05 0 0)
(0.0001003473995919279 0 0)
(0.0001619403608079574 0 0)
(0.0002528459388045038 0 0)
(0.0003706164537909056 0 0)
(0.0005083215202068038 0 0)
(0.0006557563406863365 0 0)
(0.000805339467198766 0 0)
(0.0009550377410510973 0 0)
(0.001104547453462694 0 0)
(0.001253683896308377 0 0)
(0.001401745551747373 0 0)
(0.001548026645850651 0 0)
(0.001691213187057608 0 0)
(0.001829989651656564 0 0)
(0.001962444474785769 0 0)
(0.00208671376092991 0 0)
(0.002200409530039243 0 0)
(0.00230129577274432 0 0)
(0.002386741108421783 0 0)
(0.002454416502682961 0 0)
(0.002501750866233499 0 0)
(0.002526626843025924 0 0)
(0.002526831970927367 0 0)
(0.002500764039927452 0 0)
(0.00244695603570445 0 0)
(0.002365076736961402 0 0)
(0.002256255282141775 0 0)
(0.002125392666973982 0 0)
(0.001981258913534474 0 0)
(0.001832943677418773 0 0)
(0.001684104322619328 0 0)
(0.001535405384453415 0 0)
(0.001386952713294211 0 0)
(0.001239270135354775 0 0)
(0.001093031062433992 0 0)
(0.0009493265071494274 0 0)
(0.0008094559169026858 0 0)
(0.0006751337616545136 0 0)
(0.0005482660144618182 0 0)
(0.0004311241637917059 0 0)
(0.0003260969977377227 0 0)
(0.000235832825786075 0 0)
(0.0001629683810945127 0 0)
(0.000110246062017338 0 0)
(8.023044943763451e-05 0 0)
(7.541016619448828e-05 0 0)
(9.788211154030322e-05 0 0)
(0.0001493263697068904 0 0)
(0.0002303144364101216 0 0)
(0.0003393638639600432 0 0)
(0.0004708987955360776 0 0)
(0.0006151396000610826 0 0)
(0.0007630510205655339 0 0)
(0.0009112961533488448 0 0)
(0.001059427816892794 0 0)
(0.001207267259354219 0 0)
(0.001354285755582405 0 0)
(0.001499790605570097 0 0)
(0.00164267394314362 0 0)
(0.00178164813991493 0 0)
(0.001915020372461318 0 0)
(0.002040953490686409 0 0)
(0.002157266236355217 0 0)
(0.002261719198995972 0 0)
(0.002351838179816869 0 0)
(0.002425219415184865 0 0)
(0.002479362829530392 0 0)
(0.002511983227198574 0 0)
(0.002520841958184087 0 0)
(0.00250406746074796 0 0)
(0.002460043062394596 0 0)
(0.002387953254121451 0 0)
(0.002288293815886601 0 0)
(0.002164638168106254 0 0)
(0.002024791609973855 0 0)
(0.00187849038355222 0 0)
(0.001731124633447115 0 0)
(0.001583815552022556 0 0)
(0.001436677197396654 0 0)
(0.001290122157618663 0 0)
(0.001144736477035285 0 0)
(0.001001485892031994 0 0)
(0.0008615562198709087 0 0)
(0.0007265254500150716 0 0)
(0.0005981792621979896 0 0)
(0.0004786600768944442 0 0)
(0.0003702563857958049 0 0)
(0.0002755300210083474 0 0)
(0.0001970796053505662 0 0)
(0.0001376423735873182 0 0)
(9.98391832804701e-05 0 0)
(8.626110497572561e-05 0 0)
(9.918269548994622e-05 0 0)
(0.0001405416615325563 0 0)
(0.0002113658622819322 0 0)
(0.000311023695618537 0 0)
(0.0004353363936368102 0 0)
(0.0005755178003197804 0 0)
(0.0007215156391196807 0 0)
(0.0008683297330631772 0 0)
(0.001015070983546113 0 0)
(0.001161633711798069 0 0)
(0.001307524215639014 0 0)
(0.001452211020774168 0 0)
(0.001594629286703265 0 0)
(0.0017336733280862 0 0)
(0.001867703554627502 0 0)
(0.001995062750353751 0 0)
(0.002113613677630368 0 0)
(0.002221269617261934 0 0)
(0.002315565231490936 0 0)
(0.002394192693024968 0 0)
(0.002454595403809497 0 0)
(0.002494502413089844 0 0)
(0.002511541086879303 0 0)
(0.002503764897899071 0 0)
(0.002469317473835796 0 0)
(0.00240711361994248 0 0)
(0.002316997586903929 0 0)
(0.002201451887912974 0 0)
(0.00206687865550124 0 0)
(0.001923113058804354 0 0)
(0.001777214015249132 0 0)
(0.001631280349385576 0 0)
(0.001485450844038987 0 0)
(0.001340049156487058 0 0)
(0.001195596442548806 0 0)
(0.001052910073843393 0 0)
(0.000913102338925377 0 0)
(0.0007775809800849592 0 0)
(0.0006480554342110186 0 0)
(0.0005264980031514875 0 0)
(0.0004151426222337746 0 0)
(0.0003164090242974414 0 0)
(0.00023289169877686 0 0)
(0.0001672472932185556 0 0)
(0.0001221763809245012 0 0)
(0.0001002761229970038 0 0)
(0.0001040033884602842 0 0)
(0.000135437679509493 0 0)
(0.0001960426670099627 0 0)
(0.0002858471448591501 0 0)
(0.0004020377563136733 0 0)
(0.0005371350872864543 0 0)
(0.0006807945300224864 0 0)
(0.0008261304268573733 0 0)
(0.0009715146096687556 0 0)
(0.001116733547537515 0 0)
(0.001261508687720253 0 0)
(0.001405250851224496 0 0)
(0.001547154289230943 0 0)
(0.001686064750230308 0 0)
(0.001820611010101974 0 0)
(0.001949087803383139 0 0)
(0.002069619863743204 0 0)
(0.002180055878294537 0 0)
(0.002278162104334845 0 0)
(0.002361523475010601 0 0)
(0.00242776062282209 0 0)
(0.002474432786632753 0 0)
(0.002499270454159024 0 0)
(0.002500077697703366 0 0)
(0.002475005422745587 0 0)
(0.002422564376938693 0 0)
(0.002342256747939259 0 0)
(0.002235427166016995 0 0)
(0.002107181748343863 0 0)
(0.001966618318605169 0 0)
(0.001822385907691838 0 0)
(0.001677795076440248 0 0)
(0.001533314469120517 0 0)
(0.001389095584760464 0 0)
(0.001245654333727028 0 0)
(0.001103626279511754 0 0)
(0.000964089342784514 0 0)
(0.0008282612217514208 0 0)
(0.0006978075135316776 0 0)
(0.0005745138779520843 0 0)
(0.0004605779124287792 0 0)
(0.0003582587176079409 0 0)
(0.0002701474510767441 0 0)
(0.0001987917196855458 0 0)
(0.0001469493750570269 0 0)
(0.0001171906659543318 0 0)
(0.0001121198992448325 0 0)
(0.0001339104645248476 0 0)
(0.0001843724525462542 0 0)
(0.0002640623070866723 0 0)
(0.0003713646209521865 0 0)
(0.0005002961324932359 0 0)
(0.0006409432613190643 0 0)
(0.0007846989436541689 0 0)
(0.0009287216931527426 0 0)
(0.001072620289153646 0 0)
(0.001216194983735143 0 0)
(0.001358962524864321 0 0)
(0.001500189830206592 0 0)
(0.00163886055101229 0 0)
(0.001773679473344171 0 0)
(0.001903083447498449 0 0)
(0.002025263324425926 0 0)
(0.002138195941496513 0 0)
(0.002239684978781457 0 0)
(0.002327410214290067 0 0)
(0.002398983035083979 0 0)
(0.002452006972294374 0 0)
(0.002484141642626586 0 0)
(0.002493172934406781 0 0)
(0.002477102252487297 0 0)
(0.002434299697896233 0 0)
(0.002363844165901199 0 0)
(0.002266324856408012 0 0)
(0.002145387295990886 0 0)
(0.002008998179285306 0 0)
(0.001866608952249731 0 0)
(0.001723309345186428 0 0)
(0.001580035922330837 0 0)
(0.00143694070930063 0 0)
(0.001294350296426582 0 0)
(0.001152824493521701 0 0)
(0.001013175781571356 0 0)
(0.0008764717846914614 0 0)
(0.0007440229372646864 0 0)
(0.0006173557411742886 0 0)
(0.0004981706707735317 0 0)
(0.0003882833791866628 0 0)
(0.0002895475518245913 0 0)
(0.000203756373273278 0 0)
(0.0001325139177495042 0 0)
(7.704959883221698e-05 0 0)
(3.790375242161876e-05 0 0)
(1.4350345114803e-05 0 0)
(3.557161877149124e-06 0 0)
(4.467812722934807e-07 0 0)
(2.000103243685149e-08 0 0)
(2.121470408674668e-10 0 0)
(-4.355266431999109e-14 0 0)
(-3.85234132167539e-13 0 0)
(-3.892005131959617e-13 0 0)
(-3.995816277286907e-13 0 0)
(-4.077219620588409e-13 0 0)
(-4.456076532312759e-13 0 0)
(-4.01734877454743e-13 0 0)
(-5.006493178306076e-13 0 0)
(-4.342411956183271e-13 0 0)
(-4.372972596893952e-13 0 0)
(-4.138766050039232e-13 0 0)
(-4.173378101384101e-13 0 0)
(-4.449899381530802e-13 0 0)
(-4.747327941247368e-13 0 0)
(-5.010894710846458e-13 0 0)
(-5.189256813587762e-13 0 0)
(-5.215090808558537e-13 0 0)
(-5.079568621969565e-13 0 0)
(-4.984910663630629e-13 0 0)
(-5.039704742023855e-13 0 0)
(-5.193858415789738e-13 0 0)
(-5.549132116229084e-13 0 0)
(-5.376021842088099e-13 0 0)
(-5.687930443516278e-13 0 0)
(-5.464702719306532e-13 0 0)
(-5.45604970647026e-13 0 0)
(-5.314500421344878e-13 0 0)
(-5.365668237133822e-13 0 0)
(-5.399630062080751e-13 0 0)
(-5.566463150609407e-13 0 0)
(-6.003715394624416e-13 0 0)
(-5.393753015790581e-13 0 0)
(-6.548280003035022e-13 0 0)
(-6.111402889633536e-13 0 0)
(-6.321025876898572e-13 0 0)
(-6.451596339378068e-13 0 0)
(-6.624656596104419e-13 0 0)
(-6.761454226781608e-13 0 0)
(-6.95514666729288e-13 0 0)
(-6.965075124218095e-13 0 0)
(-6.933214030710903e-13 0 0)
(-7.032648652205503e-13 0 0)
(-7.22644112754739e-13 0 0)
(-7.19968181039427e-13 0 0)
(-7.010040780517442e-13 0 0)
(-7.037350289238235e-13 0 0)
(-7.329752098721762e-13 0 0)
(-7.082741093566767e-13 0 0)
(-7.774732033392852e-13 0 0)
(-7.525545270674243e-13 0 0)
(-7.815221131028495e-13 0 0)
(-7.825874840473283e-13 0 0)
(-8.049977869450946e-13 0 0)
(-8.115325622459661e-13 0 0)
(-7.757225938058833e-13 0 0)
(-7.999260210399072e-13 0 0)
(-7.420758785749491e-13 0 0)
(-8.422532586855194e-13 0 0)
(-7.613175782172131e-13 0 0)
(-7.846106884937831e-13 0 0)
(-8.051353348369179e-13 0 0)
(-7.893148263970782e-13 0 0)
(-7.754324927974432e-13 0 0)
(-7.69532938670151e-13 0 0)
(-7.604822873827092e-13 0 0)
(-7.538249694144487e-13 0 0)
(-7.607848927449293e-13 0 0)
(-7.624279648354079e-13 0 0)
(-7.561432766108407e-13 0 0)
(-7.598520679506641e-13 0 0)
(-7.649713504003805e-13 0 0)
(-7.798240218554903e-13 0 0)
(-7.70578302648622e-13 0 0)
(-8.351132726602679e-13 0 0)
(-8.100945615579085e-13 0 0)
(-8.327924645931483e-13 0 0)
(-8.4238580483589e-13 0 0)
(-8.266953416756587e-13 0 0)
(-8.250422661018411e-13 0 0)
(-8.372715241277706e-13 0 0)
(-8.589590753752274e-13 0 0)
(-8.185575082162749e-13 0 0)
(-9.369787405351147e-13 0 0)
(-8.728038959131455e-13 0 0)
(-9.047100050940427e-13 0 0)
(-9.0731591242784e-13 0 0)
(-9.072383854342533e-13 0 0)
(-9.126827810829985e-13 0 0)
(-9.244443762763889e-13 0 0)
(-9.546273855020511e-13 0 0)
(-9.112422795241175e-13 0 0)
(-1.032844619452182e-12 0 0)
(-9.681520945825293e-13 0 0)
(-9.817193184661569e-13 0 0)
(-9.816918088875747e-13 0 0)
(-9.89276949908621e-13 0 0)
(-9.916127632002678e-13 0 0)
(-9.619849472836505e-13 0 0)
(-1.059326339950264e-12 0 0)
(-9.602968595193904e-13 0 0)
(-1.060531759657507e-12 0 0)
(-9.902948043085586e-13 0 0)
(-9.908349923933153e-13 0 0)
(-9.855306455072385e-13 0 0)
(-9.898071345101102e-13 0 0)
(-1.012630081083525e-12 0 0)
(-9.432509244060875e-13 0 0)
(-1.046359325049671e-12 0 0)
(-9.810690920677807e-13 0 0)
(-1.020270241261228e-12 0 0)
(-1.019947628932919e-12 0 0)
(-1.012269955693976e-12 0 0)
(-1.025274483655802e-12 0 0)
(-1.039864563680969e-12 0 0)
(-1.063540307183908e-12 0 0)
(-1.085973117918599e-12 0 0)
(-1.102431348402875e-12 0 0)
(-1.04220787958489e-12 0 0)
(-1.154074329636706e-12 0 0)
(-1.106102626681356e-12 0 0)
(-1.132566841084145e-12 0 0)
(-1.143113013086979e-12 0 0)
(-1.150265503466323e-12 0 0)
(-1.153246541414533e-12 0 0)
(-1.176787237896584e-12 0 0)
(-1.205522242951086e-12 0 0)
(-1.167506506499005e-12 0 0)
(-1.276829570986037e-12 0 0)
(-1.206527592997452e-12 0 0)
(-1.216303496805804e-12 0 0)
(-1.225379156800657e-12 0 0)
(-1.244913458322325e-12 0 0)
(-1.271785314659181e-12 0 0)
(-1.249104917719288e-12 0 0)
(-1.299149842536255e-12 0 0)
(-1.260428860529298e-12 0 0)
(-1.257307773818417e-12 0 0)
(-1.248977373310171e-12 0 0)
(-1.263930079596042e-12 0 0)
(-1.280443329237e-12 0 0)
(-1.26990966158777e-12 0 0)
(-1.282926693903595e-12 0 0)
(-1.220544973618028e-12 0 0)
(-1.332416425411446e-12 0 0)
(-1.272320501002224e-12 0 0)
(-1.303108720952432e-12 0 0)
(-1.321865251666579e-12 0 0)
(-1.325504018625469e-12 0 0)
(-1.324881301805709e-12 0 0)
(-1.327664770963818e-12 0 0)
(-1.364335038945911e-12 0 0)
(-1.309113311651726e-12 0 0)
(-1.42344562027492e-12 0 0)
(-1.358573032710233e-12 0 0)
(-1.369239246510089e-12 0 0)
(-1.351007898655627e-12 0 0)
(-1.336325286412338e-12 0 0)
(-1.344315568496662e-12 0 0)
(-1.317646282691441e-12 0 0)
(-1.368824101963562e-12 0 0)
(-1.337493193058155e-12 0 0)
(-1.350047564283017e-12 0 0)
(-1.345756070055273e-12 0 0)
(-1.367733722311435e-12 0 0)
(-1.389593833641345e-12 0 0)
(-1.400094989970738e-12 0 0)
(-1.432116139206454e-12 0 0)
(-1.379857943765163e-12 0 0)
(-1.493132384056077e-12 0 0)
(-1.446456132155179e-12 0 0)
(-1.472587730746793e-12 0 0)
(-1.487152802064272e-12 0 0)
(-1.491236724018534e-12 0 0)
(-1.497508907889414e-12 0 0)
(-1.507314822146905e-12 0 0)
(-1.543489917718334e-12 0 0)
(-1.504126211925468e-12 0 0)
(-1.630917858684575e-12 0 0)
(-1.584069046701073e-12 0 0)
(-1.599927068202738e-12 0 0)
(-1.587140115996952e-12 0 0)
(-1.604521167792352e-12 0 0)
(-1.645740519690462e-12 0 0)
(-1.63084283256169e-12 0 0)
(-1.683871296197631e-12 0 0)
(-1.650087033074428e-12 0 0)
(-1.651172410985388e-12 0 0)
(-1.642699460843939e-12 0 0)
(-1.624848245345307e-12 0 0)
(-1.636392264782398e-12 0 0)
(-1.651302456264956e-12 0 0)
(-1.679919920393717e-12 0 0)
(-1.639450829724152e-12 0 0)
(-1.7485838280333e-12 0 0)
(-1.685876994548352e-12 0 0)
(-1.7329358796759e-12 0 0)
(-1.744484900854496e-12 0 0)
(-1.755036074599022e-12 0 0)
(-1.78274572264119e-12 0 0)
(-1.782970801009831e-12 0 0)
(-1.809154917887238e-12 0 0)
(-1.762513678177046e-12 0 0)
(-1.849386425834389e-12 0 0)
(-1.777096255590049e-12 0 0)
(-1.771106670115217e-12 0 0)
(-1.758204677854248e-12 0 0)
(-1.7481486765207e-12 0 0)
(-1.750884629134252e-12 0 0)
(-1.706084030305066e-12 0 0)
(-1.78946806324904e-12 0 0)
(-1.783405952522405e-12 0 0)
(-1.815116993783569e-12 0 0)
(-1.836742023262058e-12 0 0)
(-1.87086890567906e-12 0 0)
(-1.884573677454713e-12 0 0)
(-1.87379242360004e-12 0 0)
(-1.923187122018811e-12 0 0)
(-1.866995056868982e-12 0 0)
(-1.984931120260071e-12 0 0)
(-1.918773085124095e-12 0 0)
(-1.927571148464561e-12 0 0)
(-1.915977111612052e-12 0 0)
(-1.914816707578712e-12 0 0)
(-1.907879292085116e-12 0 0)
(-1.898163409175022e-12 0 0)
(-1.892951594507176e-12 0 0)
(-1.822622106940006e-12 0 0)
(-1.910672764726208e-12 0 0)
(-1.860420267636019e-12 0 0)
(-1.908674568987322e-12 0 0)
(-1.916844913766504e-12 0 0)
(-1.928371427108276e-12 0 0)
(-1.960037452695917e-12 0 0)
(-1.883983471954879e-12 0 0)
(-1.98122733066154e-12 0 0)
(-1.911062900565059e-12 0 0)
(-1.939650354244668e-12 0 0)
(-1.871286551096571e-12 0 0)
(-1.971794046147549e-12 0 0)
(-1.911525561656009e-12 0 0)
(-1.920936338333146e-12 0 0)
(-1.927963785174191e-12 0 0)
(-1.940055495307918e-12 0 0)
(-1.962183199809567e-12 0 0)
(-1.917195035673331e-12 0 0)
(-2.04999377400242e-12 0 0)
(-2.010745108264601e-12 0 0)
(-2.039282544529182e-12 0 0)
(-2.04214354068083e-12 0 0)
(-2.042096024136346e-12 0 0)
(-2.047337849253358e-12 0 0)
(-2.052934798018409e-12 0 0)
(-2.095164501704398e-12 0 0)
(-2.044231767767057e-12 0 0)
(-2.182037249361526e-12 0 0)
(-2.139972603145764e-12 0 0)
(-2.163823407602493e-12 0 0)
(-2.189107211005478e-12 0 0)
(-2.198007810047322e-12 0 0)
(-2.194101449916958e-12 0 0)
(-2.183252672551929e-12 0 0)
(-2.189067197073429e-12 0 0)
(-2.125672624129278e-12 0 0)
(-2.224654588015427e-12 0 0)
(-2.157268625335483e-12 0 0)
(-2.163175682075156e-12 0 0)
(-2.136346340541188e-12 0 0)
(-2.119740558681815e-12 0 0)
(-2.159872031798537e-12 0 0)
(-2.106988618666896e-12 0 0)
(-2.193316176497946e-12 0 0)
(-2.126107775641699e-12 0 0)
(-2.162605483541337e-12 0 0)
(-2.168947691793689e-12 0 0)
(-2.167629732902146e-12 0 0)
(-2.172233835974854e-12 0 0)
(-2.168354985422899e-12 0 0)
(-2.197457618479684e-12 0 0)
(-2.133647900989066e-12 0 0)
(-2.267231912737401e-12 0 0)
(-2.208108827054524e-12 0 0)
(-2.230108987147449e-12 0 0)
(-2.247672602508477e-12 0 0)
(-2.254942633813284e-12 0 0)
(-2.281734462285612e-12 0 0)
(-2.310354427285482e-12 0 0)
(-2.340925071479325e-12 0 0)
(-2.242778398427409e-12 0 0)
(-2.350028241052563e-12 0 0)
(-2.300000822330979e-12 0 0)
(-2.31285029630591e-12 0 0)
(-2.307495932004623e-12 0 0)
(-2.320135332835184e-12 0 0)
(-2.348670268228905e-12 0 0)
(-2.291237771181333e-12 0 0)
(-2.396884555648156e-12 0 0)
(-2.354987467773535e-12 0 0)
(-2.360744472267621e-12 0 0)
(-2.394403691852298e-12 0 0)
)
;

boundaryField
{
    inlet
    {
        type            calculated;
        value           uniform (-5.106792215993006e-05 0 0);
    }
    outlet
    {
        type            calculated;
        value           uniform (-2.394403691852298e-12 0 0);
    }
    frontAndBack
    {
        type            empty;
    }
}


// ************************************************************************* //
