/*--------------------------------*- C++ -*----------------------------------*\
| =========                 |                                                 |
| \\      /  F ield         | OpenFOAM: The Open Source CFD Toolbox           |
|  \\    /   O peration     | Version:  v2012                                 |
|   \\  /    A nd           | Website:  www.openfoam.com                      |
|    \\/     M anipulation  |                                                 |
\*---------------------------------------------------------------------------*/
FoamFile
{
    version     2.0;
    format      ascii;
    class       volScalarField;
    location    "0.015";
    object      pMean;
}
// * * * * * * * * * * * * * * * * * * * * * * * * * * * * * * * * * * * * * //

dimensions      [1 -1 -2 0 0 0 0];


internalField   nonuniform List<scalar> 
1000
(
101325.3591825177
101325.502418831
101325.8263065379
101325.8758826488
101326.0272560453
101325.8068573167
101325.6672336201
101325.3819669877
101325.3717646585
101325.2356291834
101325.130597653
101325.0248653968
101324.8516277375
101324.9476163112
101324.9306460792
101325.1651672292
101325.4487763364
101325.9415447073
101326.1764044385
101326.5869687771
101326.3949138466
101326.1484200604
101325.7663512543
101325.2408312316
101324.8365944276
101324.5187783065
101324.5290808206
101324.5750859529
101324.9029544755
101325.0697497954
101325.379689593
101325.5145915772
101325.6552515021
101325.5482307492
101325.5581043299
101325.6055271342
101325.601471257
101325.4331527189
101325.0378888334
101324.7591491497
101324.5815984828
101324.1322876675
101324.2921441233
101324.037669299
101324.4416663348
101324.7179508555
101325.3043727339
101325.5529734203
101325.8682620982
101326.2532635776
101326.1987204316
101326.173383092
101325.8705219573
101325.6831128649
101325.5837419053
101325.3672678199
101325.1735100649
101324.8195668849
101324.9112257185
101324.6042122118
101324.7614443114
101324.7586115827
101325.5141839358
101325.9778465969
101326.3170652518
101326.8200827717
101326.7491998792
101326.6683371948
101326.0780059314
101325.3371334837
101324.7516576679
101323.995936287
101323.9553964802
101323.9132125899
101324.2495761597
101324.9110134853
101325.5112812173
101325.9989539513
101326.4380896775
101326.5820051595
101326.4185472533
101326.3360886261
101325.5870288995
101324.8478137156
101324.1467623047
101323.7310118606
101323.2163448731
101323.3200763103
101324.0292708053
101324.5491511001
101325.4550544054
101326.0408087085
101326.5728789463
101326.5800667516
101326.2253602224
101325.5915288662
101325.1270612096
101324.5662393656
101324.432902597
101324.3777455535
101324.6686718522
101325.1034514451
101325.278468624
101325.6638746367
101325.602636447
101325.6947925913
101325.2502437497
101325.3514088366
101325.1299749054
101325.1565310504
101325.2338589828
101325.5251398519
101325.5136790558
101325.583437369
101325.591308211
101325.4970119162
101325.5241093576
101325.0318556618
101325.1952877566
101325.120046525
101325.030059556
101324.8644497672
101324.9136379953
101325.0159779089
101325.0879378064
101325.2061988886
101325.4347670626
101325.4737191156
101325.6003390886
101325.4199556912
101325.1824996862
101324.7371062521
101324.5135304412
101324.1187574484
101324.0986158268
101324.1570546064
101324.4550191836
101325.0219655568
101325.3981577666
101325.7619849423
101325.774184384
101325.7445047043
101325.4942386701
101325.1819965939
101324.9887560489
101324.8298576228
101324.9195857496
101324.9900770788
101324.8963645843
101325.1046020976
101325.0026431975
101325.0654078744
101324.846923326
101325.0564619737
101325.230484764
101325.6921485465
101325.7357911237
101326.089619191
101325.9979784876
101325.7578588043
101325.4066196574
101324.9479392603
101324.5404492237
101324.3166452539
101324.3410385332
101324.7263345219
101324.916108734
101325.3155111159
101325.4445391201
101325.3959613761
101325.3411579827
101325.0362497638
101325.1019710882
101324.9417551657
101324.9490853419
101324.8639299366
101324.932101542
101324.5087066531
101324.5728018907
101324.1091544855
101324.0815375269
101324.1196007325
101323.9586211673
101324.3731288011
101324.5223663964
101325.1110261259
101325.2185780558
101325.5582052377
101325.5122713208
101325.499647118
101324.9038215763
101324.6880615955
101324.1428005143
101324.0615954403
101323.99473081
101324.1045169965
101324.5586187893
101324.8591783148
101325.2367087281
101325.3235326713
101325.3287959953
101325.3233136942
101325.1788788806
101325.2746785484
101325.1509845435
101325.0534793877
101324.8145336509
101324.6058293354
101324.2084563579
101324.1405557487
101323.7612551108
101323.9515632267
101324.0851344688
101324.4184931312
101324.6291100407
101324.7627077451
101324.8903346976
101324.8125205011
101324.5278887793
101324.477676672
101324.2218281802
101324.1524385915
101323.9693959581
101323.9878446984
101323.8520883024
101323.8014181474
101323.353415384
101323.3223367566
101323.2607402637
101323.0975531639
101323.7368035297
101323.9361607366
101324.6621598225
101324.9246577077
101324.9026886125
101324.6256481925
101324.177144066
101323.7579716288
101323.2248398592
101323.084631227
101323.4255212396
101323.5477791489
101323.930214804
101324.0280583827
101324.0476058298
101324.0414162395
101324.1080919324
101324.122294076
101324.1177741218
101324.0767531646
101324.1399353436
101324.1143710445
101323.5572827411
101323.414856558
101323.053845705
101322.7249320735
101322.8191501201
101322.4233090163
101323.2756735976
101323.1522743055
101323.4929662417
101323.639904002
101323.5979281915
101323.5678258901
101323.3164817177
101323.2934804156
101323.0338807646
101322.7215390839
101322.7020173128
101322.5660684208
101322.2492485296
101322.2341870516
101321.9513398157
101321.9340204546
101322.1273136095
101322.1379440279
101322.604374882
101322.8968872601
101322.9582257811
101323.1947951316
101322.7213046377
101322.810322461
101322.3194912381
101322.274937087
101322.2496642663
101322.3668095893
101322.441278884
101322.5434734495
101322.4545367024
101322.2275256859
101321.7683249707
101321.5967013267
101321.453571163
101321.8648003127
101322.1880946471
101322.5873715715
101323.1526264541
101323.3254873402
101323.1134245207
101322.4312254167
101321.8919866251
101321.0739094921
101320.7291172899
101320.5354880715
101320.9666546321
101321.5217924185
101322.0521780286
101322.3805705509
101322.4725168904
101321.9940593027
101321.6287415603
101321.0018200493
101320.7106121914
101320.7163818474
101320.8429453784
101321.0408420761
101321.2264030638
101321.1198789012
101320.7413155352
101320.3865407113
101319.7584125742
101319.677798864
101319.7689603265
101320.1870193843
101320.6799612549
101321.2433093681
101321.531633778
101321.3473284805
101320.9795274868
101320.5320598077
101320.1759362532
101320.0564836255
101320.0064653853
101319.9796455125
101320.0664481359
101320.0420901969
101319.932832087
101319.8526034435
101319.743030222
101319.8990395559
101320.4139186393
101320.6134452084
101320.810189809
101320.9074279867
101320.9492868617
101320.3509843009
101319.7330328687
101318.9473718742
101318.5350790888
101318.2672787959
101318.6140454906
101319.0643075834
101319.5364632046
101320.0843324875
101320.1247660707
101319.96716497
101319.4657390764
101318.6943969175
101318.6502351541
101318.3755748557
101318.4985633857
101318.7549139676
101318.9702567454
101318.8447106512
101318.4563808302
101317.932157477
101317.313241638
101317.1053101886
101316.7947827378
101317.4060846328
101318.2159437923
101318.8937954946
101319.3746182733
101319.6306052649
101319.1474153177
101318.7133287396
101317.8627349892
101317.0954519069
101316.8086274518
101316.9505847826
101317.1673436299
101317.7024011714
101317.8618462795
101318.1984010908
101318.1422531249
101317.7590386867
101317.2482880231
101317.1672289632
101317.211887685
101317.3382568759
101317.3168564704
101317.7696899635
101318.0227850616
101317.9141936674
101317.3306048387
101316.7820374485
101316.1042049951
101315.8660583122
101315.8685326068
101316.0453632608
101316.5235051724
101317.1520323253
101317.5965010382
101317.3137013372
101317.0076104822
101316.5541328064
101315.8645949791
101315.3943924526
101315.1970259493
101315.3727210771
101315.4648021947
101315.5174676644
101315.2162471324
101314.9970990342
101314.6818618378
101314.2214225674
101314.5901375512
101314.8624622726
101315.5094316841
101315.963488256
101316.0926061381
101315.6755581881
101315.4840520865
101314.579747504
101314.104196148
101313.6188904675
101314.1947678934
101313.9523544616
101314.446932818
101314.2112322128
101314.1045895008
101314.2845954906
101313.8465743623
101314.0449218213
101314.3528880118
101314.5636894727
101315.0341783542
101314.7727364793
101314.4746174029
101313.9290728366
101313.2398086931
101312.5952464228
101312.4238712029
101312.4494025926
101312.6090647564
101313.2460082376
101313.5370529091
101313.5157503915
101313.5805995004
101313.2015947169
101312.9373008139
101312.4503204946
101312.1352177818
101311.6822719155
101311.7815476826
101311.7028255333
101311.8563565505
101311.8214333543
101311.6945937166
101311.4897732426
101311.0824023017
101310.7598803958
101310.3538546167
101310.5887231752
101311.3630510655
101311.7961440376
101312.2696172977
101312.3372225579
101311.5725482221
101311.4602834103
101310.4237396767
101309.8560651583
101309.7575577812
101310.0504379804
101310.9042399147
101311.1927686177
101310.8538151059
101310.5260476549
101310.2275033747
101309.9349611982
101309.5499334344
101309.5405634894
101310.0284811602
101310.6381005552
101311.0876712396
101310.6012958088
101309.916347545
101309.4493163618
101308.6473470001
101308.0106424814
101307.8543433463
101308.1806365749
101308.6600179447
101309.5046388015
101309.9932552733
101309.7436537727
101309.5130116339
101308.7916710898
101308.0944733712
101307.7615401234
101307.2526586771
101307.5391077379
101307.3828396232
101307.2294269669
101306.7268960901
101306.6114153291
101306.3782143355
101306.3914040699
101306.4686018587
101306.2564551584
101307.0414264399
101307.4477049338
101307.525129917
101307.5623108022
101307.1422484748
101306.9952611141
101306.6310692804
101306.0119075504
101305.4311385616
101305.0993819661
101305.365892541
101305.5280538701
101305.8767166537
101305.7819430355
101305.7350462651
101306.209725893
101305.872495419
101305.6006214546
101305.3209258197
101304.8597096302
101305.3003898495
101305.3041623412
101304.758933873
101304.6047702433
101304.0763906211
101303.8908645041
101303.7655811864
101303.6211289853
101303.5741987616
101304.1492712943
101304.2077312733
101304.5037953848
101304.6825831011
101304.3001344701
101304.5494503164
101303.498420079
101303.0758060713
101301.8263194847
101301.5667011058
101300.7902254883
101300.7489394901
101300.9388951377
101300.9008692958
101302.50313708
101302.8251825832
101303.4064578499
101303.3823458315
101302.128100037
101301.6361523416
101300.7062727809
101299.7606498351
101299.4833153424
101299.371068429
101300.6198520005
101301.7807633624
101302.5780831532
101302.7125709152
101301.869461517
101300.506547728
101299.4575707577
101298.0499769121
101297.4069870922
101297.9623154918
101299.0496518611
101300.5697991556
101302.0476369726
101303.3104721845
101303.5707352471
101302.3338447759
101300.7110066904
101298.9109776763
101297.1384103574
101296.3374858029
101296.10895027
101297.0057385262
101297.7757248463
101299.4744740499
101300.240127692
101300.5652214273
101299.6025763322
101298.1518552924
101297.0594120401
101296.2055968912
101295.4598858988
101295.2539140577
101295.1216696863
101296.6466994388
101296.9746250706
101297.2011154697
101296.0530835529
101295.4881769081
101294.6788521776
101294.4651432482
101294.2795754623
101294.450865357
101295.6561296398
101296.4053972724
101297.3513611576
101296.5259877323
101295.7698743269
101294.5315704944
101293.4120980461
101292.9757649129
101292.5647068987
101293.2688551783
101293.8632817802
101294.4348570094
101295.0608691343
101294.2695538692
101293.7514003068
101293.2762562115
101292.4416413507
101292.6275052317
101292.7605047935
101293.3309198522
101293.3539065681
101293.0146431518
101292.0877932891
101291.5933027493
101290.6292995925
101290.23181582
101290.7180380715
101290.9865109784
101292.2543532953
101292.9179163421
101292.7550279778
101291.7071667999
101291.2086574506
101289.9964556717
101289.370315539
101289.1611050117
101289.3941452631
101290.0656324834
101290.4835963021
101289.7251808895
101289.0787063157
101288.3655264612
101288.177753518
101287.8871670444
101287.7438057368
101288.1477953096
101288.6347110285
101289.7715702975
101289.7038792653
101288.7975528752
101287.911019171
101286.8711985028
101286.6068895816
101286.0713223212
101285.7357852713
101286.4116500471
101287.0186461267
101287.8718834481
101287.9279243907
101286.5165418438
101286.3815832289
101285.9900799368
101285.7573569599
101285.4448801805
101285.3835619728
101285.5504870376
101285.9028454346
101286.038557974
101284.5557027926
101283.5936790303
101282.862424859
101282.7551223884
101282.8363563887
101283.0993677487
101283.4340772846
101283.9963034954
101284.9088757017
101284.0499349383
101283.2052520026
101281.4880025117
101280.9259806779
101280.7253699337
101280.7841822865
101280.8651170899
101281.3739673089
101282.1731904767
101281.8637345953
101280.9222770607
101280.1249167296
101279.0637645011
101279.012730163
101279.3717866731
101279.3597190375
101280.1623003471
101280.7443338197
101280.659386768
101279.8221638567
101279.2714341035
101278.4389250404
101277.5305045582
101278.2705884156
101278.0837732494
101278.8152773322
101279.47405383
101279.154674693
101279.1304058556
101277.3499617756
101277.0035203693
101275.9725997608
101275.8112743279
101276.7474118419
101277.608753757
101278.0708347698
101278.8148064129
101278.4002413263
101277.2177817729
101275.6903783421
101274.4188723233
101273.6355487726
101273.309829631
101273.9114259413
101275.1272423576
101276.1086774801
101276.7490713165
101276.6455973686
101275.5508903025
101274.3336544485
101273.4293534418
101272.1939713452
101271.841075105
101272.206065069
101272.8492995405
101273.4253400918
101273.2285148264
101272.8516343684
101271.8725969871
101271.2107312406
101270.5923210917
101270.4862415109
101270.8620326343
101271.7608394098
101272.706291605
101272.6227530338
101271.8259319379
101271.2054754413
101270.0801013453
101268.7237893823
101268.5918191888
101268.2703013529
101269.0018649524
101269.9836133911
101270.5156946366
101270.4363498929
101269.7328405905
101269.024011635
101267.9264573879
101267.1573129913
101267.0152863239
101267.6553260326
101268.3599084106
101268.5756990934
101268.4817361872
101267.6258399284
101266.8240015515
101265.7114475718
101264.4220658891
101263.8907790782
101264.5861304498
101265.2783462009
101266.0932011736
101266.3942161085
101266.2485471579
101265.6260377216
101264.9892317939
101263.9109790858
101263.1862157315
101262.5823231146
101262.6604254606
101262.6475742756
101261.766320995
101261.4279406406
101260.8045260366
101260.9427402463
101261.4829625968
101261.4850659438
101262.5040539892
101262.5620468153
101263.2142875193
101262.0827112476
101260.5198148163
101259.4559777784
101258.800524264
101258.1688826367
101258.5566431725
101258.2319519796
101259.6073028117
101260.0957438632
101260.179226401
101259.7008751004
101258.2189209737
101258.5407794465
101257.513568247
101256.9788534194
101257.5817114733
101256.3697647919
101257.2949944281
101257.3021703628
101256.5480317904
101255.7891730527
101255.2553057958
101255.1302980435
101254.9457022527
101254.7071866542
101254.6916973494
101255.2703633843
101255.117254015
101254.4060289464
101253.7399494604
101252.8111563121
101251.9255349486
101251.9119461519
101251.4526280484
101251.7613173124
101252.463798222
101252.6101703323
101252.0952128416
101251.6773854363
101249.7373342237
101248.9564285193
101247.6618178451
101247.8095419237
101247.85062122
101249.2961586525
101249.6782698408
101250.3947848123
101249.8806629212
101249.0449594863
101248.1414674345
101246.8206611807
101245.2675992551
101245.1518055343
101245.2771523948
101246.1709478464
101246.9480133104
101246.8254431371
101246.0355295097
101245.0906106039
101244.4659961807
101243.4006304098
101242.785455921
101243.7944369401
101244.3205461138
101245.0388397168
101245.1992396121
101244.6493053066
101243.682662032
101241.9179122269
101240.9183339604
101239.1082579592
101239.0164246054
101239.4436238316
101240.2709108788
101241.0798981695
101241.5589929237
101242.0997454413
101241.6771435223
101241.044791864
101239.8943853323
101238.0514958717
101237.013139989
101235.509359516
101234.9171505623
101234.1516220152
101233.8844558883
101234.5736452736
101235.7195403642
101236.952335967
101237.6940264456
101237.7016960386
101237.4230066124
101235.9716713291
101234.437290213
101232.4660331412
101231.3917551099
101230.5901744833
101230.251186831
101231.2841123004
101231.4677773874
101232.9401555928
101232.5830681928
101232.5963192644
101230.3496118983
101229.9212651303
101228.2295248493
101227.3704364349
101226.6722587547
101226.68150814
101226.7123114824
101226.7068385416
101227.0502689071
101226.3012861731
101225.7574871039
101224.9191840498
101224.0333990378
101223.3697225652
101222.7873943766
101222.4197448687
101222.1190854682
101221.4244542393
101220.4660281005
101220.4672885164
101219.3638206832
101219.8028063954
101219.2917727795
101218.3797000179
101218.0152039482
101217.1170508511
101216.2938179293
101215.3756776202
101213.9764161986
101212.7660499837
101212.3627172141
101212.1583160639
101212.5899470253
101212.9152592986
101212.7206090423
101212.4818538657
101212.0176277241
101210.8790058416
101209.9491491385
101209.3256826655
101208.2375735989
101208.1873663609
101207.5450991042
101208.0053901351
101207.3037448595
101206.9414306452
101206.1763027738
101204.4160609593
101202.9886601412
101202.2865850281
101201.1622377766
101201.3198644648
101201.4631889034
101201.3243043152
101201.3120791834
101201.2523726786
101200.1684614567
101199.130848517
101197.4718893294
101195.4557107819
101193.4025013044
101191.4954059867
101190.950137926
101191.0381417037
101191.5004290504
101192.0793044413
101192.4184910475
101192.3463117019
101191.6974835991
101190.1051217878
101187.7592119491
101185.529697025
101183.3720370371
101182.1863826588
101182.0569899061
101181.9943149227
101182.7798226264
101183.1790125651
101182.5941953883
101182.3481508699
101180.5368769488
101178.6243209502
101177.0552817979
101175.0107651867
101174.2999642494
101173.6019975526
101174.0147430062
101174.1130840554
101173.9654045726
101173.9483912165
101172.3815430933
101171.1341993088
101169.6342841364
101167.6984588822
101166.5601133558
101165.4891515891
101165.1890854269
101164.9282544549
101164.9640385366
101164.3892606052
101163.8368151967
101162.9523508672
101161.0831337881
101158.9971584741
)
;

boundaryField
{
    inlet
    {
        type            calculated;
        value           uniform 101324.9999868192;
    }
    outlet
    {
        type            calculated;
        value           uniform 101159.4020007371;
    }
    frontAndBack
    {
        type            empty;
    }
}


// ************************************************************************* //
