/*--------------------------------*- C++ -*----------------------------------*\
| =========                 |                                                 |
| \\      /  F ield         | OpenFOAM: The Open Source CFD Toolbox           |
|  \\    /   O peration     | Version:  v2012                                 |
|   \\  /    A nd           | Website:  www.openfoam.com                      |
|    \\/     M anipulation  |                                                 |
\*---------------------------------------------------------------------------*/
FoamFile
{
    version     2.0;
    format      ascii;
    class       volScalarField;
    location    "0.015";
    object      T;
}
// * * * * * * * * * * * * * * * * * * * * * * * * * * * * * * * * * * * * * //

dimensions      [0 0 0 1 0 0 0];


internalField   nonuniform List<scalar> 
1000
(
299.77884580247
299.2640970190546
299.1278131637223
299.2347500400084
299.5768761026689
300.0204514157925
300.3052494154845
300.4220935934524
300.2898480737143
300.0241060976825
299.8108464587883
299.7333577030033
299.8399662588475
300.0875854276269
300.3197671029967
300.3998578259981
300.2675186444255
300.0213910747142
299.6713959211499
299.3720040922535
299.3032015572596
299.4910139362037
299.9172101614011
300.1766259716263
300.5867328784537
300.7326963190794
300.5922915687266
300.2015207071121
299.8629183493759
299.6071502437758
299.5564623639063
299.7277300413814
300.0334633125966
300.2490980926993
300.3454576234137
300.2231477151038
299.9680386587349
299.6510774576312
299.5135656529026
299.6354949059306
299.9083845321704
300.3917329420011
300.8108414127978
300.9482874492568
300.7710423472618
300.2786316572262
299.7917554833123
299.3008888417841
299.076385540618
299.1194666000612
299.3825116277824
299.8348646223528
300.2032080538551
300.464969546625
300.4831194836541
300.3278388331934
300.0985142658273
299.8977987433133
299.8276850754116
299.9220618108365
300.0973212095229
300.2065768313004
300.146808910377
299.9643288114988
299.6953140675252
299.4392622843594
299.3842531818706
299.571288300194
299.9847568845539
300.3576813121845
300.7357500610406
300.9451603169225
300.7671936656672
300.2434296595541
299.5636989544986
299.2966185304316
299.0909038389792
299.144875349281
299.4220356806369
299.937395681316
300.5468214038737
300.9117843414278
300.8823622202765
300.689880140722
300.337312757009
300.0090245258154
299.5313572197491
299.3783742805185
299.5317315992815
299.6853355417484
299.9617716474816
300.060234634279
300.2432128021972
300.3768926283328
300.41558735388
300.4287654281206
300.3446158620165
300.3247134085738
300.1239524421956
299.7635689489184
299.4395249652008
299.3542991365014
299.2229580030604
299.2660617990811
299.5134424674832
299.9996548943191
300.3586087322529
300.7281850366332
300.8930324030724
300.8274835988175
300.4829482456851
299.9675080332646
299.4334682231425
299.0796535083027
298.9888268532993
299.1791936496156
299.625900935058
300.1055553159607
300.5710311236616
300.7807042076808
300.7094783232585
300.4274945317339
300.0538505669797
299.7370936063786
299.580408434576
299.6206202765144
299.8212526442196
300.0746359666956
300.2996813955643
300.3356530983119
300.1999834539413
299.9818528365868
299.726909399584
299.5483786508576
299.5619709870014
299.9028786069866
300.2825943372064
300.5828127896726
300.7788303540051
300.809258457193
300.5360794089966
300.080554629156
299.6713694976013
299.3604798869062
299.2500053007731
299.3549980285542
299.6343093846682
299.9245091061666
300.156443530821
300.2695813282674
300.2465429682865
300.1037302800797
299.9840890893718
299.9145837755091
299.9515034508464
300.0696898479291
300.1818146964522
300.2312721987284
300.0827218734456
299.7793994628268
299.5399712312837
299.3273817834666
299.2764049502604
299.4658641550941
299.9808302841919
300.3762624024651
300.6317051626203
300.7135207626793
300.5976859247503
300.2474510223195
299.9288878347493
299.6711081910095
299.5932394522435
299.6918421763236
299.9058628140293
300.1052337823856
300.1780311325527
300.0771935576562
299.8622649938214
299.6691142022364
299.6027998211587
299.7727328056962
300.2155263849579
300.6399829682979
300.8251579317067
300.7671638104967
300.565723495834
300.0696681945048
299.5084135930538
299.2587267926939
299.2630981025821
299.4295511858961
299.6985532502515
300.0369451535872
300.1907666985641
300.1413732441956
300.0271761449338
299.9772598129069
299.9524071202345
300.0729637764237
300.2712728581972
300.3585150667656
300.393174743735
300.1990812501891
299.8125752875245
299.317013566485
298.9977311387681
298.9305688520779
299.1536674836926
299.5914520653531
300.3314595263667
300.8317453944932
300.9555994893288
300.7420973567437
300.4071470440126
299.8916221816506
299.5833232097456
299.5451482482346
299.7211014599552
299.9647010377274
300.1942130808757
300.2593703423587
300.1014518922495
299.8504959073257
299.5725786530801
299.4545872973468
299.5831347150187
299.809183131326
300.323387785172
300.7056182865847
300.7910156416599
300.6196857060067
300.5307295720265
300.1050270299018
299.6419152314115
299.4476550936872
299.4491962465632
299.4078344933209
299.5306028938252
299.8002971890884
299.9791431875706
300.1159356249639
300.1838285270595
300.1510097587494
299.9996953653692
299.8597875314649
299.8833983119222
300.0043523979596
300.1436280483017
300.1780222787827
299.9907455343263
299.5934209948092
299.1923510705786
298.9887797530254
299.0794917698509
299.4292783554563
300.1292044921779
300.7517939947919
301.0100022271349
300.9009967570979
300.5613841133544
299.9746737977734
299.4363850532841
299.2202955711753
299.3420945762441
299.7026388052628
300.10204317453
300.4655201711593
300.5249461910128
300.3239004119229
299.9255233835125
299.5300309938912
299.2988166472349
299.3574126489798
299.7585782101467
300.2830144293511
300.717250315744
300.9798504694061
300.9262168043572
300.460580586019
299.8605619027736
299.3205192205853
298.9966167293289
298.9940300761093
299.3163596480512
299.7289716556495
300.1673299958632
300.4172939086749
300.4290328340914
300.2349062814029
299.8987136969867
299.6722939064344
299.5178076111403
299.5672591961961
299.7209118482078
300.0607441315265
300.1772636989218
300.2109571794278
300.0644326548408
299.8483962391407
299.6145406240631
299.4617613373554
299.4727665754407
299.7059263160987
300.0020093467215
300.1915305179175
300.3113395351443
300.2734583509645
300.1677212985064
300.0752161826239
299.983922140925
299.930199528452
299.9199922725871
299.9055572584657
299.8285175670504
299.8807207347949
299.7785638634715
299.6945311559768
299.685329512533
299.7185382268126
299.7998348714322
300.0540256937279
300.394132958193
300.5180573577178
300.686222953283
300.655255086706
300.3742902113929
299.8114989001468
299.3676985960548
299.0528191650366
299.0088407859899
299.2885195229359
299.7605709207115
300.1863309087087
300.437628582366
300.3838800270863
300.0977219310035
299.7609102444562
299.489805980509
299.4593694788347
299.6494855561383
299.9792787371225
300.2238729867494
300.3517320579593
300.1925562582292
299.8171835940684
299.5003290720666
299.2182000995017
299.1905097742781
299.438480992208
299.9312234574869
300.2341377903206
300.5104354124335
300.5004597798232
300.3434625085907
300.0739228196508
299.9074044506172
299.7303993134315
299.7207905159097
299.7757011337513
299.8268640934857
300.0031973088828
299.9746596058313
299.922257308691
299.8442446583325
299.7780621049002
299.7154665466094
299.8054210432018
300.0588077150958
300.3236056489588
300.4237646613666
300.5086417678778
300.346588923769
299.9842180485507
299.6793290850466
299.6223240165468
299.4802227026868
299.6205218142061
299.8135812693019
299.9398995151377
299.8141945355611
299.7419920678707
299.4805178413017
299.3176680615131
299.3507144623219
299.6384256112729
299.9714043367546
300.4846904536923
300.7547376370628
300.7202574517351
300.3563934392204
299.9573203968931
299.2097559464436
298.7706247050146
298.718104451053
299.0834525170919
299.5249369476443
300.4684562219488
301.0165279807365
301.0672855478175
300.7032005877788
300.3485056777764
299.6414740179846
299.2402369207783
299.2457456159706
299.5540257986461
299.8788557991069
300.1691968821528
300.1742612437847
299.8876827149993
299.70421224122
299.4846604035096
299.4930593789882
299.713866173366
299.9149410219061
300.2730222534711
300.4879686976587
300.4714286602338
300.5037518830807
300.4109817139504
300.1089346474506
299.6174431231114
299.3327599674737
299.0050116348409
298.9761146741889
299.1515270022647
299.5098928173144
299.935739379549
300.2474678535936
300.3612488150345
300.2559885259793
300.0179720635495
299.7715657868489
299.7128294444064
299.8202064277284
300.0433353533377
300.1815917073585
300.0809612146082
299.6358911069153
299.2287852421181
298.8660501057636
298.7923909209381
299.2466602102446
300.1617787582907
300.8716436607485
301.2218365464086
301.0380442014519
300.3794494357715
299.5263690136228
298.9644278694437
298.878714787289
299.2487377847955
299.7723916230735
300.4652026410056
300.7083989828539
300.4306900378455
299.9470974917557
299.3220580569049
298.9907741244042
299.1023571555581
299.5406759585114
300.163145021537
300.8757233885788
301.0850751901443
300.8075166588117
300.4883634692239
299.8275589123955
299.1298914541616
298.8668085768725
298.9685526753443
298.9912912594398
299.3662877944896
300.0002805774079
300.3286770776003
300.6579443174119
300.6244037669164
300.2308472141328
299.6386592123072
299.0921979210941
298.7872845452338
298.8629379840908
299.4718059469233
300.0643857338564
300.6282630380661
300.8049695055438
300.5912022858071
299.9548782042848
299.208929824604
298.6020517205374
298.3948917581858
298.8271506567667
299.8444810563409
300.741791936167
301.3645834486902
301.4582811817251
301.0057869850395
300.1715688726939
299.3562038460915
298.7486627214545
298.5699462337472
298.9270797356928
299.5533068329845
300.1701211184674
300.3792243151399
300.1604842702814
299.7173658586913
299.3443666172676
299.3268810709974
299.8664894898625
300.6080352897514
301.1827551808726
301.2270206798796
300.7774403610434
299.8438688621696
298.8211575893701
298.3092983344692
298.3562746041297
298.8517712183412
299.6697494718275
300.5075548147122
300.7442717933744
300.3627233841851
299.737755184915
299.0663887162552
298.7815200693491
299.0491646317138
299.8214821455329
300.5126725067883
301.0600836974926
301.0340843040788
300.4382299535286
299.5036179549254
298.4672558825645
297.8045773886969
297.8121505171928
298.5028071681854
299.7278352603104
301.2470541105679
302.1711199358028
302.2879817217973
301.7092880436702
300.6373170525184
299.2392748296713
298.1537930700413
297.6760865596114
297.8258815452081
298.5158194218095
299.3899440716738
300.4556467422328
301.1362235791867
301.285859837699
300.9625253470224
300.3124765990352
299.9567102886224
299.5254192227105
299.388003398532
299.390432650189
299.4520961523517
299.600056798153
299.5208131005353
299.7111329624669
299.8598377326069
299.9563858544452
299.8958986857281
300.1092076409092
299.9814158676857
299.7582258567138
299.4052087771483
299.2220628683931
298.844846758465
298.9739589231406
299.3857106578461
300.0576955294461
300.4383052063446
300.8218123492589
300.8927076782157
300.692076018017
300.0270296232351
299.3567838571533
299.0608433051924
298.7144326968958
298.7630851465273
299.156516657127
299.8507817851082
300.2347525211666
300.3266650427246
300.2797033987923
299.9409701711608
299.4838491634079
299.3155205207134
299.6505941252947
299.6220767486707
300.0783720201063
300.3035492170569
300.1174375193026
299.5807572748652
299.457412474165
299.0462071346608
298.9498994201562
299.1897037949205
299.7277469242957
300.1834147586898
300.8633261640729
301.0978471409552
300.7563067349317
300.2919031187814
299.7093253262777
299.1268069669985
298.8475083265435
298.9731166529074
299.0978440360877
299.3753794795575
299.6611289713986
299.7324152619721
299.4757103647694
299.610426265126
299.4119173524773
299.503848143982
299.8336678785459
300.2246369177174
300.4772842760239
300.5649421034371
300.1705312265554
299.5032043269231
299.06879573623
298.5407710802087
298.4334557414141
298.7583838651549
299.1120936001346
299.7808233124163
300.7664370886134
301.2626303144874
301.1965554405921
301.2297383366561
300.873357827276
299.9839357011903
299.1782801286066
298.4412074582322
297.968599296552
298.0131231327338
298.8909631214598
299.8183485983565
300.7980931789842
301.2444808178855
301.1442096406636
300.5168976884816
299.5063450734595
298.7845125959813
298.4755510502999
298.8193019424932
299.5341280142787
300.4692763154981
301.0048567479266
301.0313154824627
300.3181145498361
299.3728925629783
298.2589537907427
297.63407955378
297.756619729904
298.8574183906558
300.0420794050304
301.1680231518715
301.6658274098986
301.475374803829
300.5584018864198
299.2898597899239
298.1415218584108
297.5377521487691
297.7676017424193
298.6311186667817
299.7492722479694
300.6394112845347
301.0645970756235
300.8898732829415
300.1486171886562
299.3423118985393
298.5469808595594
298.4902526149518
298.9207623641207
299.6604011327946
300.2234533691967
300.7162450618458
300.7549175904298
300.5246959761649
299.815944357036
299.3827878298993
299.0765819219293
299.1637445761172
299.4658455390995
299.9230005442049
300.1518447854113
300.083971718441
299.7577235588678
299.2853687659849
299.0818757963605
299.1461159440145
299.6105474251606
300.1095964072081
300.7139257746276
300.907636834175
300.6962921171315
300.0139642910989
299.0458182455441
298.213356504792
297.8188678468347
298.093993636433
298.8112463350249
299.8903745110412
300.599817598211
301.0188939245493
300.9070066209298
300.3761552853717
299.6094822236943
298.8560867277647
298.4530902363957
298.5576810004414
299.0148482104448
299.4088109300027
299.8334713299854
300.1400999376107
300.2239581119935
300.1049298345309
300.0041039138455
299.8552209840249
299.6874717017998
299.56247456019
299.6391264345497
299.6412060481153
299.6734943252661
299.7452622890622
299.8512174828177
299.9048663065748
299.9302631010835
299.9363224106694
299.7550590680022
299.4441152703865
299.4508392952671
299.2228913462064
299.2800641622684
299.5712492245984
299.9569935726553
300.2578204416569
300.4996385108234
300.3249467091418
299.8232566140956
299.6128964100777
299.080619542463
298.8072408399926
298.8458622380283
299.2303675198711
299.3513361762016
299.8854152929434
300.1639940065089
300.0490152559749
299.6464985037146
299.5386375250821
299.2578398052737
299.1795381532817
299.3083477847098
299.5301900924914
299.7308864049971
299.9254113724587
299.8528266381032
299.49882677962
299.5179076430474
299.1496913121815
299.0341696865991
299.1770758603909
299.5730389917285
299.6369395339063
300.1266463688606
300.3878426018945
300.3025560616938
300.0587346058169
299.9573328157845
299.7197565635572
299.4420026307905
299.3312202854333
299.2444644797817
299.1649020550049
299.2657680854723
299.6016053694635
299.9124330863163
300.0037218022709
299.8424886921193
299.3955578637314
299.1388572527084
299.1170912753647
299.4437694192973
299.8852561087384
300.3947403688261
300.6594726653742
300.4904981509248
299.8190496898615
299.1561710696118
298.3846881186694
298.0030503720332
298.1623654565295
299.1152368833111
299.9837962314286
300.7970174198439
301.0376755323002
300.7601160519587
299.8997223977168
298.8439061412369
297.90661215043
297.520058488499
297.9142960426902
298.9967825310165
300.2736965149628
301.2297989501907
301.4306164260123
300.8779570091334
299.7507780967941
298.5170086551666
297.4806487064735
297.2272119539037
297.8807212628861
299.187463764498
300.5919340892617
301.6557516343331
301.8713302635439
301.3270569998529
300.2024837746408
298.90707417921
297.7024592432005
297.4745655669449
298.0033851104436
298.966045272883
300.0052221992862
300.8561158467568
300.8792945987769
300.4743444601992
299.8374539798203
299.1353941994767
298.6787464477907
298.7377807687834
299.1808454546414
299.6753420703524
300.1759822665596
300.2910943503817
299.9686156002666
299.4339521135579
298.8417641821351
298.4245081912165
298.4444845845907
298.8523932737779
299.4488448174666
299.8705035619661
300.1408348034714
300.1219577987877
299.8773564657267
299.268211945997
298.7964344242889
298.5483068181538
298.6845657680754
299.1077770985036
299.498753649619
299.875552237427
300.1396486970198
300.1710361544286
299.9492041976793
299.6139935295985
299.1995252216611
298.9111041387461
298.9684250865635
299.193320162727
299.5652658147788
299.7660662390498
299.9311804908422
299.9442128132079
299.8611632633085
299.7199446289001
299.5275563425055
299.1924916010128
299.0717339032433
299.0809442647655
299.0810250390335
299.0730702644076
299.111213918349
299.2911951696867
299.6474518527606
299.8817327018771
300.1742411595486
300.2971929991942
300.1560878550998
299.6996970440935
298.9303283562695
298.1801910423633
297.7132438395905
297.88413339035
298.3856263765301
299.3678446928631
300.0157058804411
300.5038007052908
300.4618005377259
300.0505142887646
299.1868244994842
298.4497714692093
297.8263940039143
297.859086343244
298.4836878414969
299.255959500677
299.9647692009572
300.3058598002725
300.124497723901
299.4515775044049
298.536235208659
297.7666193581628
297.5529544328287
298.0483454139348
299.027717111262
300.0562129836721
300.7924528737653
300.9807092944749
300.3893984691181
299.3763006680774
298.3928065843338
297.7913783504924
297.5950381194254
297.982437241258
298.7463303823042
299.4063631494741
299.6678893027686
299.5328408365158
299.1073228795458
298.6610298500722
298.7188571251239
299.0663112810111
299.7397538766404
300.2920791862389
300.4583324505722
300.1600542420892
299.2682484057386
297.9522198606684
296.5987376601448
295.7835838995389
295.7921720445967
296.6183768507551
298.0681179081438
299.8806608605898
301.3309408639865
301.9535463029906
301.625383491417
300.4410234872391
298.6133854121416
296.7586609977271
295.745268524024
295.4720194087794
296.0375238619906
297.1913692115593
298.7073222797246
300.2195025130216
301.3030643314848
301.4182727404947
300.9576607340393
300.1615054336414
298.6993704382305
296.9880712329663
296.5821204284561
296.7636059107235
297.3438079955374
297.9095096637535
298.7757206959257
299.7650578735212
300.1368389949816
300.1781660548651
299.8975458822947
299.5972469056462
298.704372349668
297.8280179094054
297.4874441927848
297.6809249622251
297.699784562246
298.1314884890265
298.9242394240171
299.439520093781
299.5623417741222
299.5472855924759
299.2777134554318
298.4314272416556
297.6301912270999
297.3671760955533
297.3053977218642
297.4818991108656
298.1573593478044
299.0654893127386
299.5855344452663
299.6504024589529
299.6164795452615
299.0919360114215
298.1119363582016
297.5247980053505
297.4754582217331
297.5678951528772
298.0127631656014
298.7979091661148
299.2253658006711
299.2288516231256
299.0392966572745
)
;

boundaryField
{
    inlet
    {
        type            fixedValue;
        value           uniform 300;
    }
    outlet
    {
        type            inletOutlet;
        inletValue      uniform 300;
        value           uniform 299.0235546863548;
    }
    frontAndBack
    {
        type            empty;
    }
}


// ************************************************************************* //
