/*--------------------------------*- C++ -*----------------------------------*\
| =========                 |                                                 |
| \\      /  F ield         | OpenFOAM: The Open Source CFD Toolbox           |
|  \\    /   O peration     | Version:  v2012                                 |
|   \\  /    A nd           | Website:  www.openfoam.com                      |
|    \\/     M anipulation  |                                                 |
\*---------------------------------------------------------------------------*/
FoamFile
{
    version     2.0;
    format      ascii;
    class       volVectorField;
    location    "0.015";
    object      UMean;
}
// * * * * * * * * * * * * * * * * * * * * * * * * * * * * * * * * * * * * * //

dimensions      [0 1 -1 0 0 0 0];


internalField   nonuniform List<vector> 
1000
(
(-0.002325027515319469 0 0)
(-0.001527185802028961 0 0)
(1.99246175503765e-05 0 0)
(0.0007798352489749458 0 0)
(0.001700043914550628 0 0)
(0.002489399871571751 0 0)
(0.001619619875700859 0 0)
(0.001383069338159487 0 0)
(0.0009208253554162856 0 0)
(0.000324974376066556 0 0)
(0.000611509991684118 0 0)
(0.001036941860482496 0 0)
(0.001362336955441215 0 0)
(0.001276701384542167 0 0)
(0.000687520575664904 0 0)
(0.001064655059617796 0 0)
(-0.0006529131575744769 0 0)
(1.064343395637207e-05 0 0)
(-0.000179577872975107 0 0)
(0.000754347349080012 0 0)
(0.001431339617124099 0 0)
(0.002701902555699677 0 0)
(0.002922753874783926 0 0)
(0.00281424189062824 0 0)
(0.002513806568456547 0 0)
(0.001085401458693005 0 0)
(0.0005600666733697714 0 0)
(-0.0005962470123782846 0 0)
(-8.979208656272748e-05 0 0)
(-0.0003631101258803095 0 0)
(0.0008747913800329673 0 0)
(0.001299125918501606 0 0)
(0.00101273495445171 0 0)
(0.001058566436486667 0 0)
(0.0007094327719081426 0 0)
(0.0004681453177070239 0 0)
(5.513240781539055e-05 0 0)
(0.0005135509082300352 0 0)
(0.001172598351551975 0 0)
(0.001312134306378807 0 0)
(0.002472249942491548 0 0)
(0.001653467603867598 0 0)
(0.0009083916565311193 0 0)
(-0.0004496874669470163 0 0)
(-0.001520840359052167 0 0)
(-0.002806594235851498 0 0)
(-0.002476583871742964 0 0)
(-0.002124723869083158 0 0)
(-0.0005266942775976556 0 0)
(0.000477820642494606 0 0)
(0.001777072434840946 0 0)
(0.002273047185212267 0 0)
(0.002256428122360421 0 0)
(0.001400198934035361 0 0)
(0.00140790520309044 0 0)
(0.0001594573297332107 0 0)
(0.0002294511775221248 0 0)
(4.120436459744189e-05 0 0)
(0.0004789177918632123 0 0)
(0.0003729053345713786 0 0)
(0.0003712871714593109 0 0)
(0.0003459169499188409 0 0)
(-0.000659008854803807 0 0)
(4.109255587690007e-05 0 0)
(-7.560500384143018e-06 0 0)
(0.0005623164104554006 0 0)
(0.001343987918414205 0 0)
(0.002484922830993931 0 0)
(0.002789771429545786 0 0)
(0.002536919961368954 0 0)
(0.001839929769189368 0 0)
(0.0002199406709418094 0 0)
(-0.0004668783504130339 0 0)
(-0.001983067367309264 0 0)
(-0.001557270296263585 0 0)
(-0.001144162039589192 0 0)
(0.000632319699738992 0 0)
(0.00152699791803449 0 0)
(0.002626217917633901 0 0)
(0.002966776514018147 0 0)
(0.003147229643390557 0 0)
(0.001698224972733422 0 0)
(0.001064984477715136 0 0)
(-0.0002690762626531042 0 0)
(-0.001178195009897738 0 0)
(-0.001448682989021285 0 0)
(-0.00111515615631433 0 0)
(-0.0002332688562442137 0 0)
(0.0001937087351361746 0 0)
(0.0004837536009027541 0 0)
(0.00109933831285675 0 0)
(0.0008156935953426789 0 0)
(0.001072638776760821 0 0)
(0.0004680327709436501 0 0)
(0.0001117159267581656 0 0)
(-0.000433048885884026 0 0)
(-0.000921892817672442 0 0)
(-0.001671429629231648 0 0)
(-0.00209501699361229 0 0)
(-0.001474387943421278 0 0)
(-0.001713457586015292 0 0)
(-0.0005424551742247812 0 0)
(0.0002452442379567151 0 0)
(0.001700758929984155 0 0)
(0.002219739785078575 0 0)
(0.003014839444739484 0 0)
(0.002420056234331473 0 0)
(0.00174894856627542 0 0)
(0.0005692814420109963 0 0)
(-0.0003461895301457987 0 0)
(-0.001656429016882506 0 0)
(-0.001953068973837952 0 0)
(-0.001461825172936958 0 0)
(-0.0002930806908909748 0 0)
(0.0009417072286986411 0 0)
(0.002061080458033584 0 0)
(0.003330133373778339 0 0)
(0.003474266095119355 0 0)
(0.002617131895450375 0 0)
(0.001969815588659348 0 0)
(0.0008172018764332168 0 0)
(0.0001207407053249919 0 0)
(-0.000506443213335959 0 0)
(-0.0002210011874979907 0 0)
(0.0003426689399994235 0 0)
(0.0008827508795818371 0 0)
(0.001050426638540207 0 0)
(0.001379647627038093 0 0)
(0.001158376164426586 0 0)
(0.000478563255944811 0 0)
(0.000342669833795522 0 0)
(0.0002116354112995832 0 0)
(0.0004852335059656417 0 0)
(0.000830916093246874 0 0)
(0.001504810594666277 0 0)
(0.001778482008410652 0 0)
(0.001485798675788838 0 0)
(0.0009382583528208866 0 0)
(0.0001848798828861714 0 0)
(-0.001145760040210566 0 0)
(-0.001996546694349114 0 0)
(-0.002264270639031016 0 0)
(-0.002051581881521934 0 0)
(-0.0014830027347158 0 0)
(-0.0005866191069802124 0 0)
(0.0004924574097110176 0 0)
(0.001392100933392218 0 0)
(0.001224944588091256 0 0)
(0.00149355944335038 0 0)
(0.00112194903890475 0 0)
(0.0009242617063654591 0 0)
(0.0002016751578352357 0 0)
(0.0001723550643851936 0 0)
(0.000571789639611091 0 0)
(0.0006229042666718368 0 0)
(0.0004156080325027255 0 0)
(0.000237018167099277 0 0)
(6.437090145708869e-05 0 0)
(2.057092978514845e-05 0 0)
(-8.563292441774695e-05 0 0)
(0.0006101325572441023 0 0)
(0.001413784765148876 0 0)
(0.002182892183520779 0 0)
(0.00324745605955299 0 0)
(0.003614387804299239 0 0)
(0.002947686096484978 0 0)
(0.002732048072641474 0 0)
(0.001413018019528906 0 0)
(0.0007401867616858938 0 0)
(0.0002878226790322905 0 0)
(-0.0002919885307932306 0 0)
(0.0005081962946339383 0 0)
(0.0007709183793617584 0 0)
(0.001371333296308095 0 0)
(0.001394420278724041 0 0)
(0.001738891923921935 0 0)
(0.001377205141172947 0 0)
(0.001337229905236097 0 0)
(0.001023352047501507 0 0)
(0.001817451064914978 0 0)
(0.001948571376366991 0 0)
(0.002543322726893679 0 0)
(0.002523881185920631 0 0)
(0.001617335312455069 0 0)
(0.001213421746744466 0 0)
(-0.0006233808308749111 0 0)
(-0.001223844092337071 0 0)
(-0.001980305884035175 0 0)
(-0.0007496530093476549 0 0)
(-0.0007954232865791629 0 0)
(0.0009049039341842283 0 0)
(0.001352312548303272 0 0)
(0.002319128626599067 0 0)
(0.002333169001940934 0 0)
(0.002060977503082952 0 0)
(0.00201778584394832 0 0)
(0.001263801410510978 0 0)
(0.001810409716518679 0 0)
(0.00168295349954866 0 0)
(0.001956989160713802 0 0)
(0.001413302568811574 0 0)
(0.001138805880775476 0 0)
(0.0005890498693614916 0 0)
(0.0002147326904840995 0 0)
(0.0002670704106986625 0 0)
(0.0005443977607141258 0 0)
(0.002137280107105424 0 0)
(0.003059326955948134 0 0)
(0.004826672212941635 0 0)
(0.005787592853515976 0 0)
(0.005840405719816804 0 0)
(0.004561244063990926 0 0)
(0.003466253612271053 0 0)
(0.002644056065231502 0 0)
(0.001287773106692959 0 0)
(0.001158717692398102 0 0)
(0.001976031711521745 0 0)
(0.002221026522677857 0 0)
(0.00309788461100281 0 0)
(0.002965414098113436 0 0)
(0.003184857451843868 0 0)
(0.002722658917832282 0 0)
(0.002455468018461636 0 0)
(0.002111591327155986 0 0)
(0.002996372543685765 0 0)
(0.003382300354737852 0 0)
(0.004100018797231789 0 0)
(0.004731139108078239 0 0)
(0.00446692652143027 0 0)
(0.003810136670389003 0 0)
(0.002367569716746937 0 0)
(0.001712162876248097 0 0)
(0.000661968153160694 0 0)
(0.0004657617719494331 0 0)
(0.0005846195278239614 0 0)
(0.001254814792502492 0 0)
(0.002295951660979186 0 0)
(0.003087169150145171 0 0)
(0.003347538405736017 0 0)
(0.004268165221535345 0 0)
(0.003982186060501028 0 0)
(0.003872123079536648 0 0)
(0.00422839022310881 0 0)
(0.003571108366403616 0 0)
(0.003571427551840233 0 0)
(0.003347090991575516 0 0)
(0.003801168229910458 0 0)
(0.004146220359422238 0 0)
(0.00375652877843202 0 0)
(0.003532795527254549 0 0)
(0.003380489673275486 0 0)
(0.003613262514238708 0 0)
(0.004680794139447831 0 0)
(0.005792398355439798 0 0)
(0.007151405490215591 0 0)
(0.008549334633621817 0 0)
(0.008354480861084918 0 0)
(0.007865345795529798 0 0)
(0.006638343861889479 0 0)
(0.005384468259667189 0 0)
(0.004266230167567184 0 0)
(0.003499782449565514 0 0)
(0.004675775791995435 0 0)
(0.005242298609048211 0 0)
(0.006110628921204616 0 0)
(0.007452066270078693 0 0)
(0.006987764206027305 0 0)
(0.006631197897475376 0 0)
(0.006241521984924669 0 0)
(0.005120161307555893 0 0)
(0.005633349104817855 0 0)
(0.005564274503286253 0 0)
(0.006426560890550362 0 0)
(0.007270415481682042 0 0)
(0.007812781549176058 0 0)
(0.008025950105655414 0 0)
(0.007016377389536953 0 0)
(0.005783821045635329 0 0)
(0.004915492658489776 0 0)
(0.003469891095587931 0 0)
(0.003539600393660166 0 0)
(0.004122370044177872 0 0)
(0.005156817458125654 0 0)
(0.007069811293242046 0 0)
(0.007372182467292412 0 0)
(0.008428753749127164 0 0)
(0.008639668054765098 0 0)
(0.008161059393475278 0 0)
(0.007695851070132396 0 0)
(0.006929132844271981 0 0)
(0.006992123986130566 0 0)
(0.00733489537771656 0 0)
(0.007621226418152386 0 0)
(0.008390508584343771 0 0)
(0.008721220875004116 0 0)
(0.00868952485369333 0 0)
(0.008999889661302763 0 0)
(0.008512517164874665 0 0)
(0.008729357912547211 0 0)
(0.008549618657269374 0 0)
(0.009074977198137064 0 0)
(0.01003996569445802 0 0)
(0.009978508924847539 0 0)
(0.01077226886018142 0 0)
(0.01100066000842286 0 0)
(0.01066471971857154 0 0)
(0.01083054069779363 0 0)
(0.009761179839200013 0 0)
(0.01004548096295499 0 0)
(0.01000296719158607 0 0)
(0.009944452399137159 0 0)
(0.009768967250914619 0 0)
(0.009740936827649807 0 0)
(0.009893410407531071 0 0)
(0.01049845066953061 0 0)
(0.0100007271285289 0 0)
(0.01049406786621657 0 0)
(0.01095042816304543 0 0)
(0.01150525727096685 0 0)
(0.01194668253507361 0 0)
(0.01199427678034158 0 0)
(0.01220235741829371 0 0)
(0.01180391060854468 0 0)
(0.01121755377527038 0 0)
(0.01021004369799649 0 0)
(0.0093955540240209 0 0)
(0.008635274952713223 0 0)
(0.008790021769114378 0 0)
(0.009366271900895423 0 0)
(0.01056654627682358 0 0)
(0.01144927038254029 0 0)
(0.01310225213086375 0 0)
(0.01353665124653631 0 0)
(0.01357768771891212 0 0)
(0.01288248542156348 0 0)
(0.01270060138505334 0 0)
(0.01186681761287994 0 0)
(0.01241874952814727 0 0)
(0.01258814064021736 0 0)
(0.01359656056052939 0 0)
(0.0139809410986031 0 0)
(0.0143036605777389 0 0)
(0.01397206210308101 0 0)
(0.0139513369159036 0 0)
(0.01318450671429828 0 0)
(0.01367221376380463 0 0)
(0.01403692984005357 0 0)
(0.01505735711778934 0 0)
(0.0158162173113113 0 0)
(0.01707771115919722 0 0)
(0.01689861593297244 0 0)
(0.01696618606475627 0 0)
(0.0165321736504915 0 0)
(0.01576707253358241 0 0)
(0.01541311013692313 0 0)
(0.01489534726774287 0 0)
(0.0150767790319012 0 0)
(0.01537983263811857 0 0)
(0.01570627388014434 0 0)
(0.01582281846877275 0 0)
(0.01625058358214374 0 0)
(0.01619011465674872 0 0)
(0.01664844943784689 0 0)
(0.01641624766189522 0 0)
(0.01676268259432753 0 0)
(0.01689702976563967 0 0)
(0.01742334726222346 0 0)
(0.01751785060872074 0 0)
(0.0178871781531251 0 0)
(0.01689950128178103 0 0)
(0.01697239045144315 0 0)
(0.01592493379290463 0 0)
(0.01574185931327276 0 0)
(0.01507314039675236 0 0)
(0.01545855666321896 0 0)
(0.01645759940044275 0 0)
(0.01706784670371302 0 0)
(0.01732102977783366 0 0)
(0.01747645035987603 0 0)
(0.01784442736868875 0 0)
(0.01818425527372601 0 0)
(0.01794300133810293 0 0)
(0.01890032203776114 0 0)
(0.0196371021110142 0 0)
(0.02071180192633503 0 0)
(0.02162817126401736 0 0)
(0.02167161029573835 0 0)
(0.02133986691895072 0 0)
(0.02060630406389444 0 0)
(0.01927177182789559 0 0)
(0.01852020946899684 0 0)
(0.01826025777362317 0 0)
(0.01895348909771107 0 0)
(0.02070212458140678 0 0)
(0.02198499660165351 0 0)
(0.02365957037875596 0 0)
(0.0251627407091332 0 0)
(0.02452572135399192 0 0)
(0.02377778892535939 0 0)
(0.02193965140043138 0 0)
(0.0206985562639637 0 0)
(0.02053546864130626 0 0)
(0.02011489998582683 0 0)
(0.02128487506949023 0 0)
(0.02183347756355812 0 0)
(0.02359231818287236 0 0)
(0.02345772038311671 0 0)
(0.0231043782406126 0 0)
(0.02321508682604578 0 0)
(0.0226342082816465 0 0)
(0.02357588621361286 0 0)
(0.02381928523323636 0 0)
(0.02426267013511019 0 0)
(0.0254109366460608 0 0)
(0.02546669300496023 0 0)
(0.02501054308048459 0 0)
(0.02454506436945457 0 0)
(0.02383348266353039 0 0)
(0.02309950703675728 0 0)
(0.02303401561189992 0 0)
(0.02197804316045575 0 0)
(0.02254597514743143 0 0)
(0.02326984795903176 0 0)
(0.02518396812400426 0 0)
(0.02543838987546415 0 0)
(0.02728509104871099 0 0)
(0.02797703276602587 0 0)
(0.02840302414988242 0 0)
(0.028262585588759 0 0)
(0.02811424831013203 0 0)
(0.02696205895838167 0 0)
(0.0276167291441072 0 0)
(0.02710849036288413 0 0)
(0.02751025537723137 0 0)
(0.02831278752387219 0 0)
(0.0276263794647659 0 0)
(0.02820841785577045 0 0)
(0.02770022668625041 0 0)
(0.02745670551489857 0 0)
(0.02903237858980818 0 0)
(0.03001171742940069 0 0)
(0.03170498714621576 0 0)
(0.03289432611511486 0 0)
(0.03389789576937326 0 0)
(0.03237909792006115 0 0)
(0.0311571752729278 0 0)
(0.02983100076114004 0 0)
(0.02846088751049351 0 0)
(0.02888728818513322 0 0)
(0.03032863750317466 0 0)
(0.03074566951946655 0 0)
(0.03342286519138381 0 0)
(0.03332788486552667 0 0)
(0.03300887884871787 0 0)
(0.03218699798021479 0 0)
(0.03137752319045617 0 0)
(0.03138581043822156 0 0)
(0.03178084159088825 0 0)
(0.03278697653489091 0 0)
(0.03418515245839646 0 0)
(0.03521192489847175 0 0)
(0.03571739369497151 0 0)
(0.03444931212407818 0 0)
(0.03310799485783005 0 0)
(0.03162931471817123 0 0)
(0.03023544558113681 0 0)
(0.03147654412593157 0 0)
(0.03111941586942351 0 0)
(0.03335085894929289 0 0)
(0.03395321575875206 0 0)
(0.03614182063120117 0 0)
(0.03725108299402367 0 0)
(0.03743595399036442 0 0)
(0.03706230507946346 0 0)
(0.03621443014935491 0 0)
(0.03545782091359369 0 0)
(0.03496940582424761 0 0)
(0.03460195074026949 0 0)
(0.03634945302342901 0 0)
(0.03719009928798896 0 0)
(0.03892297341680941 0 0)
(0.03994491733055194 0 0)
(0.03976565101278763 0 0)
(0.04033381478512974 0 0)
(0.0384156482639989 0 0)
(0.03813170774968965 0 0)
(0.03725726006154249 0 0)
(0.03811369987892459 0 0)
(0.04002136400600936 0 0)
(0.04139808608140364 0 0)
(0.04377441616931693 0 0)
(0.04472983539292592 0 0)
(0.04364142367140491 0 0)
(0.04259627034263593 0 0)
(0.04084748140348207 0 0)
(0.03879564421411232 0 0)
(0.03852434461177257 0 0)
(0.03817082774822954 0 0)
(0.04025068971075929 0 0)
(0.04155451695694531 0 0)
(0.04333474997141585 0 0)
(0.04431202584768523 0 0)
(0.04445114647723088 0 0)
(0.04430595222947908 0 0)
(0.04405038675616568 0 0)
(0.04384111686231925 0 0)
(0.04420730563137648 0 0)
(0.04575717502946278 0 0)
(0.04548160988417419 0 0)
(0.04589741526042092 0 0)
(0.04380943012875217 0 0)
(0.04266397390361566 0 0)
(0.04093454391530728 0 0)
(0.04076175998059517 0 0)
(0.04184135971948272 0 0)
(0.04387163121688856 0 0)
(0.04599035850312699 0 0)
(0.04756706480175934 0 0)
(0.04929573156321637 0 0)
(0.04848796506750003 0 0)
(0.04867846169748986 0 0)
(0.04635781168641306 0 0)
(0.04680098176294503 0 0)
(0.04732270417286361 0 0)
(0.04907491859299005 0 0)
(0.05127096600657636 0 0)
(0.05133783777810232 0 0)
(0.05129412233665743 0 0)
(0.04997810914904014 0 0)
(0.04880100080175542 0 0)
(0.04761054038271663 0 0)
(0.04767866983439194 0 0)
(0.0490097997416325 0 0)
(0.05173544126469348 0 0)
(0.05467333106910797 0 0)
(0.0572718556394463 0 0)
(0.05882243769001578 0 0)
(0.05745700149886369 0 0)
(0.05522983355481615 0 0)
(0.05203720284726809 0 0)
(0.04907187694729158 0 0)
(0.04795938765697483 0 0)
(0.04750028052784201 0 0)
(0.05007990432646771 0 0)
(0.05225926770508234 0 0)
(0.05558927707286164 0 0)
(0.05877895816835307 0 0)
(0.05960015213976328 0 0)
(0.06028178915875479 0 0)
(0.05828955135886401 0 0)
(0.05720136379888883 0 0)
(0.05489884472615704 0 0)
(0.05384126021137095 0 0)
(0.05350415607314036 0 0)
(0.05451737252151785 0 0)
(0.05545677926359902 0 0)
(0.05577604053621255 0 0)
(0.05690706168715302 0 0)
(0.05767677980907349 0 0)
(0.0583021062606257 0 0)
(0.05829300919285667 0 0)
(0.05915192530784265 0 0)
(0.05841553354954414 0 0)
(0.05869597228899773 0 0)
(0.05829393801730271 0 0)
(0.0591416833215938 0 0)
(0.05887309874890992 0 0)
(0.05998162171256242 0 0)
(0.06046655677788447 0 0)
(0.06244034575946054 0 0)
(0.06345886783901929 0 0)
(0.06462782949772504 0 0)
(0.06477924051222669 0 0)
(0.06400585303383806 0 0)
(0.06331866595206687 0 0)
(0.06170169070008002 0 0)
(0.06160368434317334 0 0)
(0.06030638638065141 0 0)
(0.06188495193099299 0 0)
(0.06247589855186834 0 0)
(0.06466326406369045 0 0)
(0.06632365143821684 0 0)
(0.06692538847685457 0 0)
(0.06820309912639207 0 0)
(0.06669625837092608 0 0)
(0.06736509537203758 0 0)
(0.06638436855475194 0 0)
(0.06681542206596307 0 0)
(0.06633416308541903 0 0)
(0.0685616583524682 0 0)
(0.0691707539969198 0 0)
(0.06952552245923534 0 0)
(0.06950358817229307 0 0)
(0.06885214635978436 0 0)
(0.06872269405250157 0 0)
(0.06883129903278187 0 0)
(0.06931108266765654 0 0)
(0.07092483292452999 0 0)
(0.07132542036665857 0 0)
(0.07369583226178576 0 0)
(0.07397743197558411 0 0)
(0.07418808633063359 0 0)
(0.0732569500752842 0 0)
(0.07169233849285046 0 0)
(0.07016558789963982 0 0)
(0.06876651360644821 0 0)
(0.07012293537570774 0 0)
(0.07022624834680188 0 0)
(0.07243788148895812 0 0)
(0.07274654034500892 0 0)
(0.07562576270990146 0 0)
(0.07633414627516749 0 0)
(0.07613503127719369 0 0)
(0.07713624353563135 0 0)
(0.0767305670270803 0 0)
(0.07818540335269222 0 0)
(0.07860936088279485 0 0)
(0.0792568465264973 0 0)
(0.07989908707843817 0 0)
(0.08001153435980782 0 0)
(0.07861578933181253 0 0)
(0.07854529407854172 0 0)
(0.07758140572979388 0 0)
(0.07827093798317161 0 0)
(0.07851983306396911 0 0)
(0.08071022268541338 0 0)
(0.08250572272355482 0 0)
(0.08502824842566438 0 0)
(0.08632563325871544 0 0)
(0.08666124489989639 0 0)
(0.08611405022957654 0 0)
(0.08537389123214832 0 0)
(0.08285121224237246 0 0)
(0.08113199230765142 0 0)
(0.08031071525546464 0 0)
(0.07912203908094487 0 0)
(0.08047677217231644 0 0)
(0.08180002410322731 0 0)
(0.08446173226093208 0 0)
(0.08687496396545533 0 0)
(0.08867325348973674 0 0)
(0.08967888577361446 0 0)
(0.08957288595596877 0 0)
(0.08777458219637778 0 0)
(0.08580550971542449 0 0)
(0.0850104038051385 0 0)
(0.08510318535627408 0 0)
(0.08618854836902139 0 0)
(0.08808553318831358 0 0)
(0.08938372568153409 0 0)
(0.0907723356835862 0 0)
(0.09089035404123073 0 0)
(0.09001646867881102 0 0)
(0.08782435610350868 0 0)
(0.08732564433885243 0 0)
(0.08768086579866917 0 0)
(0.08908675753938498 0 0)
(0.09189274682812223 0 0)
(0.09531964517663903 0 0)
(0.09734294590536786 0 0)
(0.09825813201378952 0 0)
(0.09680483350850416 0 0)
(0.09547770163198592 0 0)
(0.09272785688030832 0 0)
(0.09200723099891937 0 0)
(0.09150512194906522 0 0)
(0.09410044887146281 0 0)
(0.09607474183086395 0 0)
(0.0994210375083403 0 0)
(0.1017831693030186 0 0)
(0.1026561144356864 0 0)
(0.1036073934730123 0 0)
(0.1010227308865382 0 0)
(0.1006855040475578 0 0)
(0.09913234275849364 0 0)
(0.1000017486476736 0 0)
(0.1008119157932741 0 0)
(0.1029202022347588 0 0)
(0.1051681791576993 0 0)
(0.105007048737539 0 0)
(0.1068502874782336 0 0)
(0.1049287618108228 0 0)
(0.1044742615745584 0 0)
(0.1037908885459653 0 0)
(0.1033058784706755 0 0)
(0.1041342498224455 0 0)
(0.1042893986447195 0 0)
(0.1061583745691745 0 0)
(0.1060805975016589 0 0)
(0.1073445244584073 0 0)
(0.1069926508950666 0 0)
(0.1066282264087017 0 0)
(0.1072499264134102 0 0)
(0.1070611012170925 0 0)
(0.1090536133017236 0 0)
(0.1103210901145174 0 0)
(0.1094776339793915 0 0)
(0.1111763439442363 0 0)
(0.1094990577608969 0 0)
(0.1094727289098903 0 0)
(0.1075457305064496 0 0)
(0.1075544512562484 0 0)
(0.1078291208201405 0 0)
(0.1096121118753629 0 0)
(0.1133982132030949 0 0)
(0.1150172631915761 0 0)
(0.1175858587254365 0 0)
(0.1176289562288956 0 0)
(0.1182208320777886 0 0)
(0.1170751829863825 0 0)
(0.1153002713782366 0 0)
(0.115101458775162 0 0)
(0.1142041136452785 0 0)
(0.1154329047234593 0 0)
(0.1178648261982016 0 0)
(0.1190210587225216 0 0)
(0.1206419905759047 0 0)
(0.1221475663604962 0 0)
(0.1228804481980346 0 0)
(0.1223968546042187 0 0)
(0.1233043831236508 0 0)
(0.1217201913013413 0 0)
(0.1227644435632735 0 0)
(0.1213745482172055 0 0)
(0.1226547896809274 0 0)
(0.1228404996411881 0 0)
(0.1227114366008306 0 0)
(0.1231695238017325 0 0)
(0.1249986361416554 0 0)
(0.1240872191936497 0 0)
(0.1249990818800441 0 0)
(0.1261973073146825 0 0)
(0.1251718185254027 0 0)
(0.1249202882928244 0 0)
(0.1260445427450474 0 0)
(0.1255614203987322 0 0)
(0.1268435891203624 0 0)
(0.1276239858385732 0 0)
(0.1284562117331573 0 0)
(0.1291574894630709 0 0)
(0.1299975747731611 0 0)
(0.1302752901888956 0 0)
(0.1289423292862771 0 0)
(0.1281537932162974 0 0)
(0.127998720665782 0 0)
(0.128724471529813 0 0)
(0.1290140945289159 0 0)
(0.1311574986415763 0 0)
(0.1323061808037776 0 0)
(0.1339023782812742 0 0)
(0.1353678305136676 0 0)
(0.1357557036874874 0 0)
(0.134896526365478 0 0)
(0.1350915016938874 0 0)
(0.1348009008246497 0 0)
(0.1357285268306441 0 0)
(0.1363190745311954 0 0)
(0.1376214014502953 0 0)
(0.1392047909352998 0 0)
(0.1396207417190422 0 0)
(0.1403161888461809 0 0)
(0.1401303912122061 0 0)
(0.1404213942848636 0 0)
(0.140155443574396 0 0)
(0.1413540102920038 0 0)
(0.1423764528444524 0 0)
(0.1433278949404123 0 0)
(0.1452913389218061 0 0)
(0.1454628065988294 0 0)
(0.1465464993743475 0 0)
(0.1466179343541136 0 0)
(0.1457375187248835 0 0)
(0.1456741943489702 0 0)
(0.1442635860992349 0 0)
(0.1453407070179096 0 0)
(0.1451320121175173 0 0)
(0.1455080116538362 0 0)
(0.1467903487372919 0 0)
(0.1482042182672497 0 0)
(0.1486938780201692 0 0)
(0.1500993470178221 0 0)
(0.1508926599714329 0 0)
(0.1509589812612345 0 0)
(0.1507846200489648 0 0)
(0.1508868093769089 0 0)
(0.1511820919583014 0 0)
(0.1525241433157028 0 0)
(0.1543392418268612 0 0)
(0.1543606872457093 0 0)
(0.1536905806520191 0 0)
(0.1552665533484154 0 0)
(0.1533813873313197 0 0)
(0.1533724324596671 0 0)
(0.1530127115003689 0 0)
(0.1537415366385354 0 0)
(0.1555324617490293 0 0)
(0.157662181053283 0 0)
(0.1602570786251689 0 0)
(0.1622917326488993 0 0)
(0.1622408776864986 0 0)
(0.1616815434427731 0 0)
(0.1612807653497424 0 0)
(0.1589206026496678 0 0)
(0.1593526141534351 0 0)
(0.1596224898880153 0 0)
(0.1624587027130981 0 0)
(0.1654481860497229 0 0)
(0.1681304821560283 0 0)
(0.1705525685795991 0 0)
(0.1708885161268708 0 0)
(0.1700933608722667 0 0)
(0.1678666921452437 0 0)
(0.1662044990067304 0 0)
(0.1659834437565592 0 0)
(0.167252485678486 0 0)
(0.1700071735661288 0 0)
(0.1731847551862461 0 0)
(0.1771422995525938 0 0)
(0.1786727517641198 0 0)
(0.1794195027314432 0 0)
(0.1763572503181774 0 0)
(0.1755500697135078 0 0)
(0.1716685249704059 0 0)
(0.1716044043196691 0 0)
(0.1718664008891051 0 0)
(0.1740740117686084 0 0)
(0.1776532924300266 0 0)
(0.1808533506967653 0 0)
(0.1825740306055368 0 0)
(0.1837589205225055 0 0)
(0.1831291083307629 0 0)
(0.1812100980415605 0 0)
(0.1808285565441108 0 0)
(0.1808624265923741 0 0)
(0.1806065850336992 0 0)
(0.1833630326834827 0 0)
(0.1833872665765144 0 0)
(0.1857134077347691 0 0)
(0.1855378364855728 0 0)
(0.1863090689794247 0 0)
(0.1859350528250177 0 0)
(0.1865283049894198 0 0)
(0.1864563793966489 0 0)
(0.1877022328636629 0 0)
(0.1889724053226936 0 0)
(0.1915222193653808 0 0)
(0.1930905655668545 0 0)
(0.1940077090611307 0 0)
(0.1941648726431099 0 0)
(0.1948661090717019 0 0)
(0.1952495209924736 0 0)
(0.195137494241626 0 0)
(0.1946594814158072 0 0)
(0.1963453915025701 0 0)
(0.1975874512996068 0 0)
(0.1997402831053494 0 0)
(0.2007358438989748 0 0)
(0.2034693555748605 0 0)
(0.2029900544193035 0 0)
(0.2021835907900371 0 0)
(0.2034070904489526 0 0)
(0.2025845292885328 0 0)
(0.2038350849776583 0 0)
(0.203019555886044 0 0)
(0.2054881907007329 0 0)
(0.2056295232260729 0 0)
(0.2071603324357957 0 0)
(0.2079381357245601 0 0)
(0.2083182956728232 0 0)
(0.2089771041198321 0 0)
(0.2091715313411286 0 0)
(0.2094772740921336 0 0)
(0.2094302654334161 0 0)
(0.2097084151615397 0 0)
(0.211777261385374 0 0)
(0.2124297872810001 0 0)
(0.2133559351428595 0 0)
(0.2138693080913547 0 0)
(0.2151518698076886 0 0)
(0.2161622546584754 0 0)
(0.2180735699043249 0 0)
(0.2174436779087293 0 0)
(0.2181978985793213 0 0)
(0.2186433337725834 0 0)
(0.2185948336263469 0 0)
(0.2183634176762348 0 0)
(0.2179272949112386 0 0)
(0.2191232566435153 0 0)
(0.2212864696852912 0 0)
(0.2236716000207837 0 0)
(0.226698035726184 0 0)
(0.2287976134764532 0 0)
(0.230834441295491 0 0)
(0.2309577239273281 0 0)
(0.2312270176764862 0 0)
(0.2296840242741858 0 0)
(0.2294615238819036 0 0)
(0.2308532494427566 0 0)
(0.232493432735687 0 0)
(0.2343832758548306 0 0)
(0.2370054470697161 0 0)
(0.2398498746849002 0 0)
(0.2405137228920994 0 0)
(0.2426207300979555 0 0)
(0.2413619513800405 0 0)
(0.24109280237668 0 0)
(0.2408336581842418 0 0)
(0.2433454681343974 0 0)
(0.2457748545799122 0 0)
(0.2480071698167582 0 0)
(0.2517627768802959 0 0)
(0.2541199591019809 0 0)
(0.2542644025965856 0 0)
(0.2541081377819446 0 0)
(0.2516385415967465 0 0)
(0.2513692146271285 0 0)
(0.2509854502930494 0 0)
(0.2534401182832466 0 0)
(0.2548810831932162 0 0)
(0.2582840806202478 0 0)
(0.2620282113344727 0 0)
(0.2640629372427944 0 0)
(0.2653854357758933 0 0)
(0.2656777022122612 0 0)
(0.2660715444147893 0 0)
(0.2668481044321135 0 0)
(0.2691094920097647 0 0)
(0.2703051872436936 0 0)
(0.2716088829717517 0 0)
(0.2720292452272631 0 0)
(0.2723167918388661 0 0)
(0.2719685033073833 0 0)
(0.2709712635790468 0 0)
(0.2719609107301073 0 0)
(0.2737475869629108 0 0)
(0.2776134698332907 0 0)
(0.2821964712215614 0 0)
(0.288271855007628 0 0)
(0.2938474591809344 0 0)
(0.2972665975812642 0 0)
(0.2996586766779107 0 0)
(0.297798233047452 0 0)
(0.2949818839015949 0 0)
(0.2935394450079436 0 0)
(0.2917014735590092 0 0)
(0.292524335457043 0 0)
(0.2953502832061728 0 0)
(0.3001097378966943 0 0)
(0.3069056299839901 0 0)
(0.3126138206872279 0 0)
(0.3177563143029604 0 0)
(0.3197935790017853 0 0)
(0.3208638609939568 0 0)
(0.3204770335346896 0 0)
(0.3181614844306708 0 0)
(0.3170509443872477 0 0)
(0.3151615051839621 0 0)
(0.3165357425399674 0 0)
(0.3193861263103321 0 0)
(0.3237006449031047 0 0)
(0.3276818046546573 0 0)
(0.3318897367842896 0 0)
(0.3360156811968657 0 0)
(0.3386147122139132 0 0)
(0.3387596766919476 0 0)
(0.3393300920435792 0 0)
(0.3393785662013976 0 0)
(0.3394836774314029 0 0)
(0.3395363939749437 0 0)
(0.3407087865861783 0 0)
(0.3426617888123825 0 0)
(0.3456655151996303 0 0)
(0.349687813237314 0 0)
(0.3525882398672041 0 0)
(0.355586848259473 0 0)
(0.3573277038960537 0 0)
(0.3592444650199146 0 0)
(0.3599698382781168 0 0)
(0.3606592938816364 0 0)
(0.3609225858648285 0 0)
(0.3624419658861074 0 0)
(0.3649978810913564 0 0)
(0.3689511193878808 0 0)
(0.372001095561025 0 0)
(0.3758443262438834 0 0)
(0.379531207234289 0 0)
(0.3811208725252623 0 0)
(0.3823681182598806 0 0)
(0.3827479523438905 0 0)
(0.3827966098810709 0 0)
(0.3844224386189319 0 0)
(0.3859163019574782 0 0)
(0.3881873238349263 0 0)
(0.392315884493622 0 0)
(0.3957271692190653 0 0)
(0.3989480663334258 0 0)
(0.4020267549152725 0 0)
(0.4014121666140742 0 0)
(0.4040779072001963 0 0)
(0.4063608346422141 0 0)
)
;

boundaryField
{
    inlet
    {
        type            calculated;
        value           uniform (-0.002325027515319469 0 0);
    }
    outlet
    {
        type            calculated;
        value           uniform (0.4063608346422141 0 0);
    }
    frontAndBack
    {
        type            empty;
    }
}


// ************************************************************************* //
