/*--------------------------------*- C++ -*----------------------------------*\
| =========                 |                                                 |
| \\      /  F ield         | OpenFOAM: The Open Source CFD Toolbox           |
|  \\    /   O peration     | Version:  v2012                                 |
|   \\  /    A nd           | Website:  www.openfoam.com                      |
|    \\/     M anipulation  |                                                 |
\*---------------------------------------------------------------------------*/
FoamFile
{
    version     2.0;
    format      ascii;
    class       volScalarField;
    location    "0.002";
    object      p;
}
// * * * * * * * * * * * * * * * * * * * * * * * * * * * * * * * * * * * * * //

dimensions      [1 -1 -2 0 0 0 0];


internalField   nonuniform List<scalar> 
1000
(
101311.5835810697
101314.2202210952
101307.4520096316
101302.1405564054
101296.2532938405
101290.9282622532
101286.316426037
101282.3635187027
101278.9423610185
101276.5752995905
101275.8888105929
101275.8777145376
101276.1896666851
101277.0918214039
101278.9459273101
101281.847327257
101285.6934566641
101290.2963905481
101295.499333332
101301.1987663161
101307.3133888571
101313.7559347809
101320.4231673134
101327.1932964388
101333.9278028368
101340.4848670201
101346.7446634076
101352.639414226
101358.1748927621
101363.3908178459
101368.1404151224
101371.6978796815
101373.2157406768
101373.3997397648
101373.33170134
101373.1194828515
101372.4655012216
101371.1404687849
101368.9042760003
101365.6270213777
101361.3254094742
101356.1533858701
101350.332604481
101344.0724751503
101337.5297926027
101330.8168484505
101324.0299261126
101317.2703077119
101310.6460015115
101304.2470030764
101298.1009327526
101292.1647581564
101286.4613332466
101281.4430481771
101278.1925477316
101277.1643229101
101277.0990256649
101277.1265404112
101277.3533449744
101277.9128023914
101279.0382715421
101280.9390224378
101283.7838983117
101287.6494219806
101292.4946207326
101298.1667147107
101304.4422005004
101311.0866573494
101317.9024721349
101324.7434314541
101331.5056218741
101338.1234770097
101344.5826075145
101350.923462724
101357.1869647275
101363.2388848006
101368.4316287685
101371.5874020162
101372.4984870818
101372.5572146911
101372.5014055548
101372.3283587455
101371.8520523254
101370.9063013906
101369.293154655
101366.8346449755
101363.4047794367
101358.965911517
101353.5862272359
101347.4310738622
101340.731158258
101333.7368258682
101326.6693561331
101319.6823876154
101312.8446005855
101306.1448815937
101299.5189993155
101292.9292639887
101286.5911868606
101281.3573871629
101278.4792770913
101277.7951578481
101277.7754227044
101277.8055764935
101277.9893407766
101278.4297563776
101279.2982399343
101280.7675102925
101283.005947968
101286.1467880972
101290.2599931078
101295.3276024302
101301.2343259629
101307.7828004247
101314.7313095414
101321.8413846225
101328.9239844524
101335.8771815853
101342.7024739624
101349.4755305075
101356.2375444086
101362.7535047993
101368.1530418048
101371.1705258216
101371.9318508489
101371.9725400303
101371.9286443248
101371.7906012043
101371.4176969257
101370.6781032544
101369.4091085319
101367.4471083524
101364.6458413074
101360.9040874595
101356.1903896197
101350.5594241333
101344.1552912721
101337.1947449019
101329.9250233295
101322.5645922108
101315.2506616453
101308.0185517791
101300.8312984309
101293.6948214166
101286.9383991559
101281.5894318747
101278.8735465308
101278.2996326977
101278.2872381032
101278.3134304235
101278.463390353
101278.8211646832
101279.5249289597
101280.7199207712
101282.5577040716
101285.1768066931
101288.6825089445
101293.1233337565
101298.471562032
101304.6172022117
101311.3802576811
101318.5405921388
101325.8833608952
101333.2522771853
101340.5869285353
101347.9061663332
101355.1938840588
101362.1322792803
101367.7402106466
101370.7495114791
101371.4716436888
101371.5089788451
101371.474468984
101371.3651982619
101371.0667869957
101370.4707602557
101369.4394961555
101367.8274337783
101365.4917953781
101362.3122194823
101358.211120644
101353.1723996755
101347.2555509274
101340.5974636188
101333.3916371474
101325.844062752
101318.1214134796
101310.3172712232
101302.4681476515
101294.6741318607
101287.4078537906
101281.8634625486
101279.2222607939
101278.7104829405
101278.7009069458
101278.722940469
101278.8472420224
101279.1435671744
101279.7272841264
101280.7227020718
101282.2647451151
101284.4858333625
101287.5015709465
101291.3918742065
101296.1821459029
101301.8314580579
101308.232225808
101315.2234605332
101322.6209757545
101330.263028486
101338.0510225445
101345.9432442884
101353.8451079337
101361.3290054933
101367.2741088655
101370.3721640745
101371.0908794037
101371.1278849208
101371.1003293278
101371.0127556709
101370.7695980871
101370.2799917302
101369.4259965768
101368.0788245561
101366.1051301075
101363.3810418146
101359.8076975504
101355.3273879948
101349.9390291221
101343.7070845719
101336.7541753888
101329.233610712
101321.2910315506
101313.0355202535
101304.5548169022
101296.0437453064
101288.1385958316
101282.2400706878
101279.54842198
101279.0552278994
101279.0456080227
101279.0638411629
101279.1679365879
101279.416944424
101279.9090372621
101280.7516860584
101282.0646682941
101283.9709141967
101286.5863962853
101290.0055767157
101294.2854367603
101299.4331849107
101305.4010653263
101312.0904342546
101319.3696626484
101327.1074502398
101335.2059590349
101343.593716184
101352.1144392336
101360.2310627384
101366.6552818128
101369.9630990098
101370.7193753101
101370.7584805728
101370.7354181713
101370.6586691154
101370.4435190158
101370.0060422679
101369.2351984378
101368.0048078697
101366.1755275143
101363.6028674517
101360.1492939248
101355.7040424262
101350.220483993
101343.8009850242
101336.8940118786
101330.6093621133
101326.5607322748
101325.1797778087
101325.0055899936
101325.00003065
101325.0000000213
101324.9999999996
101324.9999999999
101324.9999999997
101324.9999999998
101324.9999999995
101325.0000000005
101325.0000000001
101325.0000000003
101325.0000000003
101325.0000000002
101325.0000000003
101325
101325.0000000003
101325.0000000001
101325.0000000001
101325.0000000001
101325
101324.9999999997
101324.9999999998
101324.9999999997
101324.9999999995
101324.9999999994
101324.9999999999
101324.9999999994
101324.9999999994
101325
101324.9999999998
101325
101324.9999999999
101324.9999999997
101324.9999999995
101324.9999999997
101324.9999999996
101324.9999999998
101324.9999999997
101325.0000000003
101325
101324.9999999997
101324.9999999998
101324.9999999998
101324.9999999996
101324.9999999994
101324.9999999995
101324.9999999999
101324.9999999996
101325
101324.9999999995
101325.0000000001
101325
101325
101325.0000000002
101325.0000000001
101325.0000000003
101325.0000000006
101325.0000000006
101325.0000000001
101325.0000000001
101325.0000000003
101325.0000000002
101325.0000000002
101325
101325.0000000003
101325.0000000003
101325.0000000003
101325
101324.9999999998
101324.9999999999
101325
101325
101324.9999999998
101325.0000000001
101324.9999999999
101324.9999999998
101325.0000000001
101324.9999999999
101325.0000000002
101325.0000000003
101324.9999999998
101325.0000000001
101324.9999999997
101324.9999999997
101324.9999999997
101324.9999999998
101324.9999999997
101324.9999999993
101325
101324.9999999995
101324.9999999998
101324.9999999995
101325
101324.9999999996
101324.9999999999
101324.9999999996
101324.9999999996
101325.0000000003
101325.0000000002
101324.9999999998
101325.0000000002
101325.0000000002
101325.0000000003
101325
101325.0000000003
101325.0000000001
101325.0000000003
101325.0000000004
101325.0000000004
101325.0000000004
101325
101325
101325.0000000001
101324.9999999994
101324.9999999997
101324.9999999998
101324.9999999995
101325
101324.9999999998
101324.9999999994
101324.9999999994
101324.9999999998
101324.9999999995
101325
101324.9999999999
101324.9999999999
101324.9999999998
101324.9999999998
101324.9999999999
101324.9999999996
101324.9999999999
101325.0000000002
101325
101325.0000000004
101325.0000000003
101325.0000000004
101325.0000000006
101325.0000000001
101325.0000000006
101325.0000000001
101325.0000000004
101325.0000000002
101325.0000000001
101325.0000000003
101325.0000000004
101325
101325
101324.9999999998
101325
101324.9999999998
101324.9999999995
101324.9999999995
101324.9999999997
101324.9999999995
101324.9999999996
101324.9999999995
101324.9999999993
101324.9999999999
101324.9999999993
101324.9999999997
101324.9999999995
101324.9999999995
101324.9999999994
101324.9999999997
101324.9999999994
101324.9999999997
101324.9999999996
101324.9999999994
101324.9999999996
101324.9999999992
101324.9999999992
101324.9999999996
101324.9999999994
101324.9999999993
101324.9999999994
101324.9999999997
101324.9999999995
101324.9999999999
101324.9999999996
101324.9999999999
101324.9999999997
101325.0000000001
101325.0000000002
101324.9999999997
101324.9999999996
101324.9999999997
101324.9999999995
101324.9999999994
101324.9999999994
101324.9999999996
101324.9999999993
101324.9999999998
101324.9999999995
101324.9999999993
101324.9999999997
101324.9999999994
101324.9999999995
101324.9999999995
101324.9999999998
101324.9999999999
101325.0000000001
101325
101325.0000000001
101325
101325.0000000002
101325.0000000001
101325.0000000002
101324.9999999999
101325.0000000003
101324.9999999997
101324.9999999999
101324.9999999999
101324.9999999997
101324.9999999999
101325
101325
101325.0000000001
101324.9999999997
101325
101324.9999999997
101324.9999999999
101324.9999999999
101324.9999999997
101325.0000000001
101325
101325
101324.9999999998
101324.9999999996
101324.9999999996
101324.9999999999
101324.9999999997
101324.9999999997
101325.0000000002
101325.0000000002
101325.0000000002
101325.0000000004
101325
101325.0000000005
101325
101325.0000000002
101325.0000000002
101325.0000000001
101325.0000000002
101325.0000000003
101324.9999999999
101325.0000000002
101325
101325.0000000003
101325.0000000006
101324.9999999998
101325.0000000002
101325.0000000001
101325.0000000001
101325.0000000003
101325.0000000002
101325.0000000003
101325.0000000001
101325.0000000002
101325.0000000001
101325.0000000002
101325
101325.0000000003
101325.0000000001
101324.9999999996
101325
101325
101324.9999999998
101325
101324.9999999997
101325
101324.9999999998
101324.9999999998
101324.9999999995
101325
101324.9999999998
101324.9999999994
101324.9999999998
101324.9999999991
101324.9999999992
101324.9999999994
101324.9999999994
101324.9999999997
101324.9999999997
101325
101324.9999999997
101324.9999999998
101324.9999999993
101324.9999999994
101324.9999999998
101325.0000000001
101324.9999999997
101325.0000000001
101325.0000000003
101325
101325.0000000002
101325.0000000001
101325.0000000005
101325.0000000005
101325.0000000004
101325.0000000004
101325.0000000004
101325.0000000005
101325.0000000003
101325.0000000006
101325.0000000005
101325.0000000004
101325.0000000002
101325.0000000004
101325.0000000006
101325.0000000001
101325.0000000007
101325.0000000005
101325.0000000001
101324.9999999999
101325
101325.0000000001
101325.0000000001
101324.9999999999
101325.0000000001
101324.9999999996
101324.9999999998
101324.9999999999
101325.0000000001
101325
101325.0000000002
101325.0000000003
101325.0000000006
101325.0000000002
101325.0000000009
101325.0000000003
101325.0000000008
101325.0000000005
101325.0000000005
101325.0000000006
101325.0000000004
101325.0000000004
101325.0000000002
101325.0000000004
101325.0000000004
101325.0000000004
101325.0000000003
101325.0000000006
101325.0000000004
101325.0000000005
101325.0000000002
101325
101325.0000000005
101325.0000000003
101325.0000000001
101325.0000000002
101325.0000000003
101324.9999999997
101325
101324.9999999999
101324.9999999998
101325
101325
101325.0000000001
101324.9999999998
101324.9999999999
101325
101325
101324.9999999999
101325.0000000001
101325.0000000001
101324.9999999999
101325.0000000001
101324.9999999998
101324.9999999998
101324.9999999997
101324.9999999995
101324.9999999999
101324.9999999999
101324.9999999998
101324.9999999998
101324.9999999999
101324.9999999998
101325
101324.9999999998
101325.0000000004
101325.0000000001
101325.0000000002
101325
101325.0000000001
101325.0000000004
101325
101325.0000000002
101325.0000000002
101325.0000000003
101325.0000000003
101325.0000000003
101325.0000000006
101325.0000000003
101324.9999999999
101324.9999999999
101324.9999999998
101324.9999999998
101324.9999999998
101324.9999999995
101324.9999999997
101324.9999999997
101324.9999999996
101324.9999999996
101324.9999999991
101324.9999999992
101324.9999999991
101324.9999999995
101324.9999999992
101324.9999999996
101324.9999999996
101324.9999999997
101325
101325
101325.0000000002
101325.0000000001
101325.0000000002
101324.9999999999
101324.9999999998
101325.0000000001
101325.0000000001
101324.9999999999
101325.0000000002
101324.9999999999
101325.0000000001
101325.0000000002
101325.0000000006
101325.0000000002
101325.0000000005
101325.0000000001
101325.0000000001
101325.0000000001
101324.9999999999
101325.0000000003
101325
101325.0000000003
101325
101325.0000000003
101325.0000000001
101325.0000000001
101324.9999999999
101324.9999999998
101324.9999999999
101324.9999999995
101324.9999999996
101324.9999999996
101324.9999999996
101324.9999999996
101324.9999999995
101324.9999999998
101324.9999999995
101324.9999999999
101324.9999999997
101324.9999999996
101325
101324.9999999999
101324.9999999996
101324.9999999999
101324.9999999999
101324.9999999995
101324.9999999995
101324.9999999997
101324.9999999995
101324.9999999997
101324.9999999998
101324.9999999995
101325.0000000002
101324.9999999998
101324.9999999997
101325.0000000003
101325.0000000002
101325.0000000002
101325.0000000006
101325.0000000003
101325.0000000003
101325.0000000008
101325.0000000002
101325.0000000007
101325.0000000005
101325.0000000003
101325.0000000003
101325.0000000006
101325.0000000001
101325.0000000007
101325.0000000004
101325.0000000002
101325.0000000003
101325.0000000003
101325.0000000003
101325.0000000003
101325
101325.0000000003
101324.9999999998
101325
101324.9999999998
101324.9999999999
101324.9999999997
101324.9999999995
101324.9999999994
101324.9999999995
101324.9999999997
101324.9999999994
101324.9999999996
101324.9999999998
101324.9999999997
101324.9999999999
101325
101324.9999999997
101324.9999999999
101324.9999999998
101325.0000000003
101325
101325.0000000005
101325.0000000005
101325.0000000002
101325.0000000007
101325.0000000006
101325.0000000002
101325.0000000003
101325.0000000002
101325.0000000002
101325.0000000001
101325.0000000001
101324.9999999999
101324.9999999999
101324.9999999994
101324.9999999996
101324.9999999997
101324.9999999994
101324.9999999996
101324.9999999996
101324.9999999995
101324.9999999994
101324.9999999996
101324.9999999995
101324.9999999995
101325.0000000001
101325
101325
101325.0000000006
101325.0000000003
101325.0000000002
101325.0000000008
101325.0000000008
101325.0000000006
101325.0000000008
101325.0000000009
101325.0000000004
101325.0000000008
101325.0000000005
101325.0000000003
101325.0000000003
101325
101325.0000000003
101325.0000000002
101325.0000000001
101325
101325.0000000001
101325.0000000001
101324.9999999998
101325
101325.0000000002
101325.0000000003
101325.0000000003
101325.0000000003
101325.0000000002
101324.9999999998
101324.9999999998
101325.0000000001
101324.9999999999
101324.9999999996
101324.9999999998
101325.0000000001
101324.9999999998
101325
101325
101325.0000000001
101324.9999999999
101324.9999999999
101325.0000000001
101325
101325.0000000002
101324.9999999999
101324.9999999999
101325
101325
101324.9999999997
101324.9999999999
101324.9999999998
101324.9999999998
101324.9999999999
101325.0000000002
101324.9999999997
101325
101324.9999999996
101325
101324.9999999997
101324.9999999998
101325.0000000002
101324.9999999999
101325.0000000003
101325.0000000001
101325.0000000002
101325.0000000004
101325.0000000004
101325.0000000001
101325.0000000001
101325.0000000005
101325.0000000001
101325.0000000003
101325.0000000001
101325.0000000001
101325.0000000002
101324.9999999998
101324.9999999998
101324.9999999999
101325.0000000002
101324.9999999996
101324.9999999999
101324.9999999998
101324.9999999998
101324.9999999996
101324.9999999995
101324.9999999996
101324.9999999996
101324.9999999996
101324.9999999996
101324.9999999994
101324.9999999996
101324.9999999996
101324.9999999995
101324.9999999997
101324.9999999994
101324.9999999995
101324.9999999997
101324.9999999995
101324.9999999997
101324.9999999999
101324.9999999995
101324.9999999997
101324.9999999997
101324.9999999999
101324.9999999996
101324.9999999996
101324.9999999996
101324.9999999996
101324.9999999996
101324.9999999996
101324.9999999994
101324.9999999996
101324.9999999995
101324.9999999996
101324.9999999996
101325
101325.0000000001
101325.0000000001
101325
101325.0000000001
101325.0000000001
101325.0000000001
101324.9999999996
101324.9999999999
101324.9999999996
101324.9999999999
101324.9999999992
101324.9999999995
101324.9999999994
101324.9999999995
101324.9999999993
101324.9999999995
101324.9999999996
101324.9999999996
101324.9999999996
101324.9999999995
101324.9999999995
101324.9999999997
101324.9999999995
101324.9999999992
101324.9999999999
101324.9999999995
101324.9999999997
101324.9999999994
101324.9999999999
101324.9999999996
101325.0000000001
101324.9999999998
101325.0000000003
101325.0000000001
101325.0000000006
101325.0000000002
101325.0000000006
101325.0000000005
101325.0000000006
101325.0000000002
101325.0000000003
101325.0000000001
101325.0000000001
101325.0000000001
101324.9999999998
101325.0000000001
101325.0000000002
101324.9999999997
101324.9999999996
101324.9999999999
101324.9999999997
101324.9999999997
101324.9999999998
101324.9999999995
101324.9999999996
101324.9999999996
101324.9999999995
101324.9999999995
101324.9999999997
101324.9999999999
101324.9999999994
101324.9999999995
101324.9999999997
101324.9999999995
101324.9999999995
101324.9999999997
101324.9999999995
)
;

boundaryField
{
    inlet
    {
        type            uniformFixedValue;
        uniformValue    sine;
        uniformValueCoeffs
        {
            frequency       constant 3000;
            scale           constant 50;
            level           constant 101325;
        }
        value           uniform 101325;
    }
    outlet
    {
        type            characteristicVelocityInletOutletPressure;
        UName           U;
        pName           p;
        TName           T;
        phiName         phi;
        rhoName         rho;
        U               (0 0 0);
        p               101325;
        T               300;
        value           uniform 101324.9999999995;
    }
    frontAndBack
    {
        type            empty;
    }
}


// ************************************************************************* //
