/*--------------------------------*- C++ -*----------------------------------*\
| =========                 |                                                 |
| \\      /  F ield         | OpenFOAM: The Open Source CFD Toolbox           |
|  \\    /   O peration     | Version:  v2012                                 |
|   \\  /    A nd           | Website:  www.openfoam.com                      |
|    \\/     M anipulation  |                                                 |
\*---------------------------------------------------------------------------*/
FoamFile
{
    version     2.0;
    format      ascii;
    class       volScalarField;
    location    "0.002";
    object      pMean;
}
// * * * * * * * * * * * * * * * * * * * * * * * * * * * * * * * * * * * * * //

dimensions      [1 -1 -2 0 0 0 0];


internalField   nonuniform List<scalar> 
1000
(
101325.0507636099
101325.0220854922
101325.0877692677
101325.1490844575
101325.2424114562
101325.3543678738
101325.4843783037
101325.6308941387
101325.7899971554
101325.9609672864
101326.1368443325
101326.314075532
101326.4899191449
101326.6644331925
101326.8331185029
101326.994129331
101327.142273925
101327.2760731163
101327.3915654794
101327.4882131638
101327.5629539778
101327.6157739658
101327.6443567308
101327.6493838105
101327.629519296
101327.5862997215
101327.519416213
101327.4312027916
101327.321945589
101327.1938219196
101327.0469678769
101326.8850801696
101326.7134097453
101326.5396175468
101326.3653823327
101326.1919098789
101326.0199057556
101325.8514780875
101325.6893909356
101325.5372001406
101325.3985643881
101325.2769179597
101325.1749696888
101325.0947077778
101325.0374226738
101325.0039572139
101324.9947763075
101325.0099964645
101325.0493185978
101325.1120536585
101325.1973469033
101325.3044242394
101325.4326176003
101325.5804661497
101325.7437025672
101325.9146194961
101326.0871041641
101326.2595472631
101326.4313588849
101326.6020101924
101326.7693788161
101326.9316063364
101327.0850730272
101327.2267750292
101327.3525885376
101327.459784581
101327.545280232
101327.6078207088
101327.6459161062
101327.659702936
101327.6487873188
101327.6140478648
101327.5555316572
101327.4742189571
101327.3699761161
101327.2436517977
101327.0963893167
101326.9337952198
101326.763839163
101326.5928453862
101326.4217257386
101326.2511134562
101326.0816490894
101325.9147189597
101325.7523637529
101325.5972860949
101325.4527547635
101325.322316516
101325.2094941834
101325.1173748125
101325.0483456171
101325.0039096199
101324.9847478792
101324.9908584477
101325.0218323419
101325.0771351532
101325.156409342
101325.2595497705
101325.3862276846
101325.5342403158
101325.6972714208
101325.8664178232
101326.0364724044
101326.2064711905
101326.37595578
101326.5444951588
101326.7105133295
101326.8725377026
101327.0277484439
101327.1735061112
101327.3060754121
101327.42235123
101327.5187474572
101327.5929442072
101327.6427026588
101327.6673650185
101327.66635011
101327.6402863965
101327.5892744369
101327.5139644178
101327.414081492
101327.2902513281
101327.1442744814
101326.9828427066
101326.8147502412
101326.6458176398
101326.4768042987
101326.3081878339
101326.1404724684
101325.9747426751
101325.8125973757
101325.6562280336
101325.5083797953
101325.3722479964
101325.251273411
101325.1488630601
101325.0680614855
101325.0112646488
101324.9800364459
101324.9751086988
101324.9965539829
101325.0441357257
101325.1176543606
101325.2170545533
101325.3417768561
101325.4888567843
101325.650802277
101325.8182830228
101325.9864889086
101326.1546481379
101326.3223874733
101326.4893528278
101326.6542796529
101326.8159581744
101326.9720722028
101327.1203496253
101327.2575082225
101327.3805561515
101327.4858969369
101327.5707345917
101327.632233337
101327.6688467401
101327.6792626672
101327.6633822862
101327.6209328976
101327.5522570738
101327.4571020854
101327.3362259014
101327.1920680494
101327.0320970276
101326.8656335303
101326.6983519749
101326.5309994934
101326.3639637669
101326.1976458295
101326.0329246521
101325.8711061569
101325.7140114617
101325.5639759512
101325.4238118563
101325.2966920319
101325.1859663355
101325.0949013024
101325.0264140786
101324.9828295687
101324.965759387
101324.976128887
101325.0143967252
101325.0808237629
101325.1755224325
101325.2976881102
101325.4435256373
101325.6043884933
101325.7704726686
101325.9371867853
101326.10386184
101326.2701888837
101326.4358736457
101326.5998701473
101326.7611639946
101326.9178056837
101327.0678293422
101327.2083543446
101327.3366145804
101327.4491880103
101327.5431345469
101327.615318733
101327.6635552898
101327.6858286942
101327.6811944423
101327.6487117018
101327.5881339376
101327.4989554203
101327.3819133706
101327.2399886809
101327.0814824153
101326.9164019469
101326.7504814836
101326.5844950309
101326.4187645325
101326.2536172583
101326.0897764365
101325.9283334122
101325.770821266
101325.6192473072
101325.4760771749
101325.3441867064
101325.2267337308
101325.1269844898
101325.0480874421
101324.9928648402
101324.963641761
101324.9621997448
101324.9898586639
101325.0476305577
101325.1361146243
101325.2545522644
101325.3984964783
101325.5581534185
101325.7230227831
101325.8884943623
101326.0539318022
101326.2190805913
101326.3836877128
101326.5468760256
101326.7077771325
101326.8647305499
101327.0160195235
101327.1591143701
101327.2914889059
101327.4099629569
101327.5116123981
101327.5932070522
101327.6521619615
101327.6859360686
101327.6928275369
101327.671165453
101327.6199400548
101327.5381206823
101327.4261370058
101327.2872474651
101327.1305144485
101326.9668298939
101326.8022296962
101326.6375706844
101326.47313329
101326.3092096956
101326.1464512971
101325.9858477418
101325.8288168279
101325.6772534397
101325.5335634419
101325.4006617777
101325.2819152198
101325.1809882987
101325.1014857983
101325.0461170443
101325.0149050774
101325.0027555922
101325.0002114133
101325.0000045301
101325.0000000175
101324.9999999995
101324.9999999995
101324.9999999994
101324.9999999994
101324.9999999995
101324.9999999994
101324.9999999995
101324.9999999995
101324.9999999995
101324.9999999995
101324.9999999995
101324.9999999995
101324.9999999995
101324.9999999996
101324.9999999995
101324.9999999995
101324.9999999995
101324.9999999995
101324.9999999995
101324.9999999996
101324.9999999996
101324.9999999995
101324.9999999995
101324.9999999995
101324.9999999995
101324.9999999995
101324.9999999995
101324.9999999995
101324.9999999995
101324.9999999995
101324.9999999996
101324.9999999995
101324.9999999995
101324.9999999996
101324.9999999995
101324.9999999996
101324.9999999995
101324.9999999996
101324.9999999996
101324.9999999996
101324.9999999995
101324.9999999995
101324.9999999995
101324.9999999996
101324.9999999995
101324.9999999995
101324.9999999996
101324.9999999995
101324.9999999995
101324.9999999995
101324.9999999995
101324.9999999996
101324.9999999995
101324.9999999995
101324.9999999995
101324.9999999995
101324.9999999995
101324.9999999995
101324.9999999995
101324.9999999996
101324.9999999994
101324.9999999996
101324.9999999994
101324.9999999995
101324.9999999995
101324.9999999995
101324.9999999995
101324.9999999995
101324.9999999995
101324.9999999996
101324.9999999995
101324.9999999995
101324.9999999995
101324.9999999995
101324.9999999995
101324.9999999995
101324.9999999996
101324.9999999995
101324.9999999995
101324.9999999995
101324.9999999995
101324.9999999996
101324.9999999996
101324.9999999995
101324.9999999995
101324.9999999995
101324.9999999995
101324.9999999996
101324.9999999995
101324.9999999995
101324.9999999995
101324.9999999995
101324.9999999995
101324.9999999995
101324.9999999995
101324.9999999995
101324.9999999995
101324.9999999995
101324.9999999995
101324.9999999995
101324.9999999995
101324.9999999995
101324.9999999996
101324.9999999995
101324.9999999996
101324.9999999995
101324.9999999995
101324.9999999996
101324.9999999995
101324.9999999995
101324.9999999996
101324.9999999995
101324.9999999995
101324.9999999995
101324.9999999996
101324.9999999995
101324.9999999996
101324.9999999995
101324.9999999995
101324.9999999996
101324.9999999996
101324.9999999996
101324.9999999996
101324.9999999995
101324.9999999995
101324.9999999995
101324.9999999995
101324.9999999996
101324.9999999995
101324.9999999995
101324.9999999995
101324.9999999994
101324.9999999996
101324.9999999995
101324.9999999996
101324.9999999995
101324.9999999995
101324.9999999995
101324.9999999995
101324.9999999995
101324.9999999994
101324.9999999995
101324.9999999996
101324.9999999994
101324.9999999995
101324.9999999996
101324.9999999995
101324.9999999995
101324.9999999995
101324.9999999995
101324.9999999995
101324.9999999995
101324.9999999995
101324.9999999995
101324.9999999995
101324.9999999995
101324.9999999995
101324.9999999995
101324.9999999995
101324.9999999995
101324.9999999995
101324.9999999995
101324.9999999995
101324.9999999995
101324.9999999994
101324.9999999995
101324.9999999995
101324.9999999995
101324.9999999994
101324.9999999995
101324.9999999994
101324.9999999994
101324.9999999995
101324.9999999994
101324.9999999995
101324.9999999994
101324.9999999994
101324.9999999994
101324.9999999994
101324.9999999994
101324.9999999994
101324.9999999994
101324.9999999994
101324.9999999994
101324.9999999994
101324.9999999994
101324.9999999993
101324.9999999994
101324.9999999993
101324.9999999994
101324.9999999993
101324.9999999992
101324.9999999994
101324.9999999992
101324.9999999992
101324.9999999993
101324.9999999993
101324.9999999992
101324.9999999993
101324.9999999993
101324.9999999992
101324.9999999993
101324.9999999993
101324.9999999993
101324.9999999993
101324.9999999992
101324.9999999993
101324.9999999992
101324.9999999992
101324.9999999993
101324.9999999993
101324.9999999993
101324.9999999993
101324.9999999992
101324.9999999994
101324.9999999993
101324.9999999993
101324.9999999993
101324.9999999993
101324.9999999993
101324.9999999993
101324.9999999993
101324.9999999993
101324.9999999993
101324.9999999993
101324.9999999993
101324.9999999993
101324.9999999993
101324.9999999993
101324.9999999993
101324.9999999993
101324.9999999992
101324.9999999994
101324.9999999993
101324.9999999994
101324.9999999992
101324.9999999993
101324.9999999993
101324.9999999994
101324.9999999993
101324.9999999994
101324.9999999993
101324.9999999994
101324.9999999994
101324.9999999993
101324.9999999994
101324.9999999995
101324.9999999993
101324.9999999995
101324.9999999994
101324.9999999995
101324.9999999995
101324.9999999994
101324.9999999996
101324.9999999995
101324.9999999994
101324.9999999996
101324.9999999995
101324.9999999995
101324.9999999995
101324.9999999995
101324.9999999995
101324.9999999995
101324.9999999996
101324.9999999995
101324.9999999996
101324.9999999996
101324.9999999996
101324.9999999996
101324.9999999995
101324.9999999996
101324.9999999996
101324.9999999996
101324.9999999996
101324.9999999996
101324.9999999995
101324.9999999997
101324.9999999995
101324.9999999996
101324.9999999996
101324.9999999996
101324.9999999996
101324.9999999996
101324.9999999996
101324.9999999996
101324.9999999996
101324.9999999996
101324.9999999996
101324.9999999996
101324.9999999996
101324.9999999996
101324.9999999996
101324.9999999995
101324.9999999995
101324.9999999996
101324.9999999996
101324.9999999996
101324.9999999995
101324.9999999995
101324.9999999996
101324.9999999996
101324.9999999996
101324.9999999996
101324.9999999996
101324.9999999996
101324.9999999995
101324.9999999996
101324.9999999996
101324.9999999996
101324.9999999995
101324.9999999995
101324.9999999996
101324.9999999996
101324.9999999996
101324.9999999996
101324.9999999995
101324.9999999996
101324.9999999996
101324.9999999996
101324.9999999995
101324.9999999995
101324.9999999996
101324.9999999995
101324.9999999996
101324.9999999996
101324.9999999996
101324.9999999996
101324.9999999996
101324.9999999996
101324.9999999995
101324.9999999996
101324.9999999996
101324.9999999995
101324.9999999996
101324.9999999995
101324.9999999995
101324.9999999995
101324.9999999994
101324.9999999995
101324.9999999995
101324.9999999995
101324.9999999996
101324.9999999995
101324.9999999996
101324.9999999995
101324.9999999995
101324.9999999995
101324.9999999996
101324.9999999994
101324.9999999995
101324.9999999995
101324.9999999995
101324.9999999995
101324.9999999995
101324.9999999995
101324.9999999995
101324.9999999995
101324.9999999995
101324.9999999995
101324.9999999995
101324.9999999995
101324.9999999996
101324.9999999995
101324.9999999995
101324.9999999995
101324.9999999995
101324.9999999995
101324.9999999995
101324.9999999995
101324.9999999995
101324.9999999994
101324.9999999995
101324.9999999994
101324.9999999995
101324.9999999995
101324.9999999995
101324.9999999994
101324.9999999995
101324.9999999994
101324.9999999995
101324.9999999994
101324.9999999994
101324.9999999995
101324.9999999995
101324.9999999994
101324.9999999994
101324.9999999994
101324.9999999994
101324.9999999995
101324.9999999994
101324.9999999995
101324.9999999994
101324.9999999995
101324.9999999995
101324.9999999995
101324.9999999994
101324.9999999994
101324.9999999995
101324.9999999994
101324.9999999995
101324.9999999994
101324.9999999995
101324.9999999994
101324.9999999994
101324.9999999995
101324.9999999994
101324.9999999995
101324.9999999995
101324.9999999995
101324.9999999995
101324.9999999994
101324.9999999995
101324.9999999994
101324.9999999995
101324.9999999995
101324.9999999994
101324.9999999995
101324.9999999995
101324.9999999995
101324.9999999995
101324.9999999994
101324.9999999995
101324.9999999995
101324.9999999994
101324.9999999994
101324.9999999995
101324.9999999995
101324.9999999995
101324.9999999995
101324.9999999996
101324.9999999995
101324.9999999995
101324.9999999995
101324.9999999995
101324.9999999996
101324.9999999995
101324.9999999995
101324.9999999995
101324.9999999996
101324.9999999995
101324.9999999995
101324.9999999995
101324.9999999996
101324.9999999996
101324.9999999995
101324.9999999995
101324.9999999995
101324.9999999996
101324.9999999995
101324.9999999995
101324.9999999995
101324.9999999996
101324.9999999995
101324.9999999995
101324.9999999995
101324.9999999995
101324.9999999995
101324.9999999995
101324.9999999995
101324.9999999995
101324.9999999995
101324.9999999995
101324.9999999995
101324.9999999995
101324.9999999996
101324.9999999995
101324.9999999996
101324.9999999995
101324.9999999995
101324.9999999995
101324.9999999995
101324.9999999996
101324.9999999995
101324.9999999995
101324.9999999996
101324.9999999995
101324.9999999996
101324.9999999995
101324.9999999995
101324.9999999995
101324.9999999995
101324.9999999996
101324.9999999995
101324.9999999996
101324.9999999995
101324.9999999995
101324.9999999995
101324.9999999995
101324.9999999995
101324.9999999995
101324.9999999995
101324.9999999996
101324.9999999995
101324.9999999996
101324.9999999995
101324.9999999995
101324.9999999995
101324.9999999996
101324.9999999995
101324.9999999995
101324.9999999995
101324.9999999995
101324.9999999995
101324.9999999995
101324.9999999995
101324.9999999995
101324.9999999996
101324.9999999995
101324.9999999995
101324.9999999995
101324.9999999996
101324.9999999995
101324.9999999996
101324.9999999996
101324.9999999995
101324.9999999995
101324.9999999995
101324.9999999995
101324.9999999996
101324.9999999996
101324.9999999996
101324.9999999995
101324.9999999995
101324.9999999995
101324.9999999995
101324.9999999996
101324.9999999996
101324.9999999995
101324.9999999996
101324.9999999996
101324.9999999995
101324.9999999995
101324.9999999995
101324.9999999995
101324.9999999995
101324.9999999995
101324.9999999996
101324.9999999996
101324.9999999995
101324.9999999996
101324.9999999995
101324.9999999996
101324.9999999996
101324.9999999996
101324.9999999995
101324.9999999997
101324.9999999996
101324.9999999996
101324.9999999996
101324.9999999995
101324.9999999996
101324.9999999995
101324.9999999996
101324.9999999995
101324.9999999996
101324.9999999996
101324.9999999995
101324.9999999996
101324.9999999996
101324.9999999996
101324.9999999995
101324.9999999996
101324.9999999996
101324.9999999996
101324.9999999996
101324.9999999995
101324.9999999996
101324.9999999996
101324.9999999995
101324.9999999996
101324.9999999996
101324.9999999996
101324.9999999996
101324.9999999996
101324.9999999996
101324.9999999995
101324.9999999996
101324.9999999996
101324.9999999996
101324.9999999996
101324.9999999996
101324.9999999995
101324.9999999995
101324.9999999995
101324.9999999995
101324.9999999995
101324.9999999995
101324.9999999995
101324.9999999995
101324.9999999995
101324.9999999995
101324.9999999995
101324.9999999995
101324.9999999995
101324.9999999995
101324.9999999995
101324.9999999995
101324.9999999996
101324.9999999995
101324.9999999995
101324.9999999994
101324.9999999994
101324.9999999995
101324.9999999995
101324.9999999995
101324.9999999994
101324.9999999995
101324.9999999994
101324.9999999995
101324.9999999995
101324.9999999994
101324.9999999995
101324.9999999994
101324.9999999995
101324.9999999994
101324.9999999994
101324.9999999994
101324.9999999994
101324.9999999995
101324.9999999994
101324.9999999995
101324.9999999995
101324.9999999995
101324.9999999995
101324.9999999994
101324.9999999995
101324.9999999995
101324.9999999995
101324.9999999995
101324.9999999995
101324.9999999995
101324.9999999995
101324.9999999995
101324.9999999995
101324.9999999995
101324.9999999995
101324.9999999995
101324.9999999995
101324.9999999995
101324.9999999995
101324.9999999995
101324.9999999995
101324.9999999995
101324.9999999995
101324.9999999995
101324.9999999995
101324.9999999995
101324.9999999995
101324.9999999995
101324.9999999995
101324.9999999995
101324.9999999995
101324.9999999996
101324.9999999995
101324.9999999995
101324.9999999995
101324.9999999996
101324.9999999995
101324.9999999995
101324.9999999995
101324.9999999995
101324.9999999995
101324.9999999995
101324.9999999995
101324.9999999995
101324.9999999995
101324.9999999995
101324.9999999995
101324.9999999995
101324.9999999995
101324.9999999995
101324.9999999995
101324.9999999995
101324.9999999995
101324.9999999995
101324.9999999995
101324.9999999995
101324.9999999995
101324.9999999994
101324.9999999996
101324.9999999995
101324.9999999995
101324.9999999995
101324.9999999995
101324.9999999995
101324.9999999996
101324.9999999995
101324.9999999995
101324.9999999996
101324.9999999996
101324.9999999995
101324.9999999995
101324.9999999995
101324.9999999995
101324.9999999995
101324.9999999995
101324.9999999996
101324.9999999995
101324.9999999995
101324.9999999995
101324.9999999995
101324.9999999995
101324.9999999995
101324.9999999995
101324.9999999996
101324.9999999995
101324.9999999995
101324.9999999996
101324.9999999995
101324.9999999995
101324.9999999995
101324.9999999995
101324.9999999995
101324.9999999995
101324.9999999995
101324.9999999995
101324.9999999995
101324.9999999995
)
;

boundaryField
{
    inlet
    {
        type            calculated;
        value           uniform 101325.0000003043;
    }
    outlet
    {
        type            calculated;
        value           uniform 101324.9999999995;
    }
    frontAndBack
    {
        type            empty;
    }
}


// ************************************************************************* //
