/*--------------------------------*- C++ -*----------------------------------*\
| =========                 |                                                 |
| \\      /  F ield         | OpenFOAM: The Open Source CFD Toolbox           |
|  \\    /   O peration     | Version:  v2012                                 |
|   \\  /    A nd           | Website:  www.openfoam.com                      |
|    \\/     M anipulation  |                                                 |
\*---------------------------------------------------------------------------*/
FoamFile
{
    version     2.0;
    format      ascii;
    class       volScalarField;
    location    "0.002";
    object      rho;
}
// * * * * * * * * * * * * * * * * * * * * * * * * * * * * * * * * * * * * * //

dimensions      [1 -3 0 0 0 0 0];


internalField   nonuniform List<scalar> 
1000
(
1.176299597795684
1.176323112978285
1.176269320698897
1.17622613233727
1.176175671918896
1.176129533014652
1.176090417335673
1.176057646334026
1.176029538926588
1.1760100754614
1.176004423528698
1.176004304808709
1.176006840908443
1.176014331469188
1.176029786470321
1.176053920256587
1.176085840280301
1.176124000357115
1.176167123910885
1.176214366177998
1.176265056999402
1.176318472191493
1.176373754144148
1.176429891742585
1.176485735430803
1.176540108194665
1.176592015275926
1.176640893706586
1.176686790863816
1.176730036123946
1.176769413324639
1.176798906078434
1.17681148889859
1.17681301349949
1.176812449102128
1.176810689922589
1.176805268658025
1.176794283628166
1.176775743953487
1.176748572626193
1.176712907974323
1.176670026122355
1.176621764606323
1.176569859510558
1.176515610734174
1.176459949233577
1.176403673282453
1.176347622663075
1.176292693002138
1.176239630632963
1.176188664700416
1.176139438468794
1.176092141562096
1.176050525719934
1.176023569546323
1.176015042503596
1.176014500993552
1.176014729172172
1.176016610059772
1.176021249629991
1.176030583106053
1.176046345902708
1.176069938107484
1.176101994115654
1.176142173876932
1.176189210129099
1.176241249171871
1.176296346875059
1.176352864450663
1.176409589433304
1.176465660190283
1.176520533111118
1.176574088954652
1.176626663169587
1.17667859510118
1.176728771903103
1.176771824569288
1.176797988574991
1.176805542192431
1.17680602908706
1.176805566382854
1.176804131687341
1.176800182733167
1.176792341702864
1.176778967382201
1.17675858418764
1.176730147367773
1.176693344557283
1.176648740785772
1.176597706650974
1.176542154727465
1.176484160543613
1.176425558770048
1.176367623342909
1.176310923810027
1.176255368086771
1.176200423602166
1.176145777847218
1.176093218037517
1.176049814996061
1.176025947052449
1.176020273677371
1.176020110013023
1.176020360075523
1.176021884027321
1.176025536381529
1.176032738679633
1.1760449232386
1.176063486353097
1.176089532792706
1.176123642534495
1.176165666357391
1.176214647885593
1.176268950179379
1.176326568604416
1.176385525595412
1.176444253582744
1.176501907436019
1.176558499638748
1.176614657648008
1.176670723032039
1.176724747333634
1.176769514565811
1.176794532070982
1.176800844069968
1.176801181414451
1.176800817483303
1.176799672995988
1.176796581323633
1.176790449496911
1.176779928480413
1.176763661801395
1.176740436717721
1.176709413845149
1.176670332119579
1.1766236445559
1.176570545589331
1.176512832108465
1.17645255388454
1.17639152226401
1.176330874961076
1.176270904884136
1.176211305552886
1.176152126086671
1.176096097157157
1.176051739095541
1.176029216494476
1.17602445705534
1.176024354266667
1.176024571477372
1.176025815089339
1.176028782098385
1.176034618381367
1.176044528364604
1.176059768907691
1.176081488712742
1.176110560696672
1.176147387022962
1.176191737538684
1.176242699813602
1.176298780936459
1.176358155238003
1.176419041057388
1.176480142419889
1.176540958401271
1.176601645324301
1.176662069660725
1.176719596537972
1.176766091628264
1.176791041320656
1.176797028387212
1.176797337924605
1.17679705180915
1.176796145866486
1.176793671797317
1.176788730251778
1.176780180216388
1.176766814831901
1.176747450271743
1.176721088499012
1.176687086055733
1.176645309194001
1.176596250870854
1.176541045740795
1.176481297893857
1.176418715104221
1.176354679250823
1.176289966241015
1.176224878801908
1.176160246914449
1.17609999003599
1.176054011414075
1.176032108181066
1.176027864037227
1.176027784623197
1.176027967344984
1.1760289981717
1.176031455582417
1.176036296314985
1.176044551243546
1.176057339248908
1.176075758408976
1.176100767294528
1.176133028456218
1.176172752308177
1.176219599155057
1.176272676533016
1.176330649169597
1.176391989513087
1.176455356219311
1.176519931639887
1.17658536983307
1.176650886518058
1.176712936397427
1.17676222705926
1.176787912636807
1.176793871381879
1.176794178186964
1.176793949728056
1.176793223671
1.176791207697529
1.176787148460689
1.176780068130096
1.17676889891853
1.176752535222102
1.176729949938006
1.176700323249831
1.176663176466069
1.176618500312886
1.17656682894302
1.176509178712707
1.176446820476052
1.176380961583938
1.176312506329824
1.176242182107358
1.176171604380418
1.176106049750062
1.176057134447242
1.176034812890612
1.176030722865838
1.176030643088546
1.176030794294697
1.176031657552839
1.176033722562062
1.17603780345883
1.176044791482458
1.176055679913175
1.176071488148321
1.176093177842721
1.176121532211873
1.176157023584993
1.176199711479005
1.176249199572125
1.176304669548594
1.176365029600025
1.176429190705492
1.176496341378831
1.1765658888042
1.176636537043535
1.176703833200847
1.176757096331934
1.176784521065178
1.17679079123082
1.176791115445836
1.176790924239971
1.176790287928164
1.176788504158644
1.176784877116723
1.176778486176603
1.176768285180658
1.176753118807529
1.176731789017521
1.176703155375638
1.176666299301275
1.176620833870452
1.1765676074506
1.17651033813635
1.176458227887518
1.176424657523626
1.176413206865838
1.176411762523725
1.176411716426332
1.176411716172361
1.17641171617218
1.176411716172181
1.176411716172181
1.176411716172181
1.176411716172179
1.176411716172186
1.176411716172183
1.176411716172185
1.176411716172186
1.176411716172185
1.176411716172185
1.176411716172183
1.176411716172185
1.176411716172184
1.176411716172185
1.176411716172185
1.176411716172184
1.176411716172182
1.176411716172181
1.17641171617218
1.176411716172178
1.176411716172176
1.176411716172183
1.176411716172178
1.176411716172177
1.176411716172181
1.176411716172181
1.176411716172181
1.17641171617218
1.176411716172181
1.176411716172179
1.176411716172182
1.176411716172182
1.176411716172183
1.176411716172181
1.176411716172185
1.17641171617218
1.176411716172178
1.176411716172179
1.176411716172179
1.176411716172178
1.176411716172178
1.176411716172179
1.17641171617218
1.176411716172178
1.176411716172181
1.176411716172177
1.176411716172182
1.176411716172181
1.176411716172182
1.176411716172184
1.176411716172183
1.176411716172186
1.176411716172188
1.176411716172188
1.176411716172183
1.176411716172184
1.176411716172188
1.176411716172188
1.176411716172186
1.176411716172181
1.176411716172183
1.176411716172185
1.176411716172183
1.176411716172181
1.176411716172179
1.176411716172179
1.176411716172179
1.176411716172182
1.17641171617218
1.176411716172182
1.176411716172181
1.17641171617218
1.176411716172184
1.176411716172182
1.176411716172187
1.176411716172187
1.176411716172183
1.176411716172186
1.176411716172179
1.176411716172179
1.17641171617218
1.17641171617218
1.176411716172177
1.176411716172175
1.176411716172181
1.176411716172179
1.176411716172183
1.176411716172181
1.176411716172184
1.176411716172182
1.176411716172184
1.176411716172181
1.176411716172182
1.176411716172185
1.176411716172184
1.176411716172181
1.176411716172187
1.176411716172188
1.176411716172187
1.176411716172185
1.176411716172187
1.176411716172185
1.176411716172187
1.176411716172188
1.176411716172185
1.176411716172184
1.176411716172182
1.176411716172181
1.176411716172183
1.176411716172178
1.17641171617218
1.176411716172182
1.176411716172179
1.176411716172181
1.17641171617218
1.176411716172174
1.176411716172175
1.17641171617218
1.176411716172181
1.176411716172184
1.176411716172184
1.176411716172182
1.176411716172181
1.176411716172183
1.176411716172184
1.176411716172181
1.176411716172183
1.176411716172187
1.176411716172185
1.176411716172187
1.176411716172185
1.176411716172187
1.176411716172186
1.176411716172182
1.176411716172187
1.176411716172184
1.176411716172188
1.176411716172186
1.176411716172185
1.176411716172186
1.176411716172184
1.176411716172182
1.17641171617218
1.176411716172177
1.176411716172182
1.176411716172181
1.176411716172179
1.176411716172179
1.176411716172178
1.176411716172176
1.176411716172177
1.17641171617218
1.17641171617218
1.176411716172184
1.17641171617218
1.176411716172183
1.176411716172182
1.176411716172181
1.176411716172177
1.176411716172178
1.176411716172175
1.176411716172179
1.176411716172179
1.176411716172176
1.176411716172178
1.176411716172175
1.176411716172177
1.17641171617218
1.176411716172178
1.176411716172176
1.17641171617218
1.176411716172181
1.176411716172181
1.176411716172185
1.176411716172183
1.176411716172184
1.176411716172183
1.176411716172185
1.176411716172187
1.176411716172182
1.176411716172181
1.176411716172183
1.176411716172181
1.176411716172179
1.176411716172178
1.17641171617218
1.176411716172178
1.176411716172181
1.176411716172181
1.176411716172178
1.176411716172182
1.176411716172179
1.17641171617218
1.176411716172177
1.17641171617218
1.176411716172182
1.176411716172184
1.176411716172184
1.176411716172185
1.176411716172184
1.176411716172184
1.176411716172185
1.176411716172186
1.176411716172184
1.176411716172187
1.176411716172181
1.176411716172181
1.176411716172181
1.176411716172181
1.176411716172181
1.176411716172184
1.176411716172183
1.176411716172185
1.176411716172181
1.176411716172183
1.176411716172179
1.17641171617218
1.176411716172183
1.176411716172181
1.176411716172185
1.176411716172183
1.176411716172184
1.176411716172181
1.176411716172181
1.176411716172182
1.176411716172181
1.176411716172181
1.176411716172183
1.176411716172187
1.176411716172186
1.176411716172185
1.176411716172186
1.176411716172184
1.176411716172189
1.176411716172184
1.176411716172187
1.176411716172186
1.176411716172185
1.176411716172185
1.176411716172189
1.176411716172184
1.176411716172185
1.176411716172184
1.176411716172187
1.176411716172188
1.176411716172182
1.176411716172183
1.176411716172183
1.176411716172182
1.176411716172184
1.176411716172183
1.176411716172184
1.176411716172182
1.176411716172183
1.176411716172182
1.176411716172182
1.176411716172179
1.176411716172182
1.17641171617218
1.176411716172175
1.176411716172179
1.17641171617218
1.176411716172182
1.176411716172184
1.176411716172183
1.176411716172185
1.176411716172184
1.176411716172182
1.17641171617218
1.176411716172183
1.176411716172177
1.176411716172174
1.176411716172177
1.176411716172174
1.176411716172174
1.176411716172178
1.17641171617218
1.176411716172181
1.176411716172182
1.176411716172186
1.176411716172183
1.176411716172181
1.176411716172175
1.176411716172174
1.176411716172177
1.176411716172182
1.17641171617218
1.176411716172184
1.176411716172187
1.176411716172182
1.176411716172183
1.176411716172182
1.176411716172187
1.176411716172187
1.176411716172188
1.176411716172188
1.176411716172186
1.176411716172186
1.176411716172185
1.176411716172186
1.176411716172186
1.176411716172187
1.176411716172183
1.176411716172185
1.176411716172186
1.176411716172183
1.176411716172187
1.176411716172184
1.176411716172182
1.17641171617218
1.176411716172179
1.17641171617218
1.176411716172181
1.17641171617218
1.17641171617218
1.176411716172174
1.176411716172177
1.176411716172177
1.176411716172179
1.17641171617218
1.176411716172182
1.176411716172182
1.176411716172185
1.176411716172183
1.176411716172189
1.176411716172183
1.176411716172188
1.176411716172186
1.176411716172186
1.176411716172187
1.176411716172187
1.176411716172188
1.176411716172186
1.176411716172188
1.176411716172186
1.176411716172187
1.176411716172185
1.176411716172186
1.176411716172185
1.176411716172187
1.176411716172183
1.176411716172183
1.176411716172186
1.176411716172185
1.176411716172185
1.176411716172186
1.176411716172186
1.176411716172181
1.176411716172183
1.176411716172184
1.176411716172182
1.176411716172186
1.176411716172184
1.176411716172183
1.176411716172181
1.176411716172183
1.176411716172183
1.176411716172181
1.176411716172181
1.176411716172183
1.176411716172183
1.176411716172181
1.176411716172185
1.17641171617218
1.176411716172182
1.176411716172179
1.176411716172178
1.17641171617218
1.17641171617218
1.176411716172177
1.176411716172179
1.17641171617218
1.176411716172182
1.176411716172183
1.176411716172183
1.176411716172188
1.176411716172185
1.176411716172184
1.176411716172181
1.176411716172183
1.176411716172184
1.176411716172182
1.176411716172186
1.176411716172186
1.176411716172187
1.176411716172188
1.176411716172187
1.176411716172189
1.176411716172189
1.176411716172184
1.176411716172181
1.17641171617218
1.176411716172177
1.176411716172179
1.17641171617218
1.176411716172182
1.176411716172183
1.176411716172182
1.176411716172179
1.176411716172176
1.176411716172176
1.176411716172173
1.176411716172178
1.176411716172174
1.176411716172177
1.176411716172177
1.176411716172178
1.176411716172182
1.176411716172182
1.176411716172184
1.176411716172183
1.176411716172186
1.176411716172184
1.176411716172181
1.176411716172183
1.176411716172185
1.176411716172181
1.176411716172184
1.17641171617218
1.176411716172182
1.176411716172183
1.176411716172189
1.176411716172186
1.176411716172187
1.176411716172182
1.176411716172181
1.176411716172182
1.17641171617218
1.176411716172185
1.176411716172185
1.176411716172187
1.176411716172185
1.176411716172187
1.176411716172182
1.176411716172182
1.17641171617218
1.176411716172181
1.176411716172184
1.176411716172181
1.17641171617218
1.176411716172177
1.176411716172176
1.176411716172177
1.176411716172181
1.176411716172183
1.17641171617218
1.176411716172184
1.176411716172183
1.176411716172181
1.176411716172184
1.176411716172184
1.176411716172181
1.176411716172183
1.176411716172184
1.176411716172181
1.17641171617218
1.176411716172182
1.176411716172181
1.176411716172182
1.176411716172181
1.176411716172179
1.176411716172186
1.176411716172184
1.17641171617218
1.176411716172183
1.176411716172181
1.176411716172181
1.176411716172185
1.176411716172185
1.176411716172187
1.176411716172191
1.176411716172185
1.176411716172191
1.176411716172188
1.176411716172187
1.176411716172185
1.176411716172188
1.176411716172184
1.176411716172189
1.176411716172188
1.176411716172185
1.176411716172187
1.176411716172187
1.176411716172187
1.176411716172189
1.176411716172184
1.176411716172186
1.176411716172183
1.176411716172184
1.176411716172183
1.176411716172184
1.176411716172182
1.17641171617218
1.176411716172178
1.176411716172178
1.17641171617218
1.176411716172179
1.176411716172181
1.176411716172183
1.176411716172184
1.176411716172187
1.176411716172184
1.17641171617218
1.176411716172184
1.176411716172184
1.176411716172187
1.176411716172186
1.17641171617219
1.176411716172192
1.176411716172187
1.176411716172189
1.176411716172185
1.176411716172181
1.17641171617218
1.176411716172181
1.176411716172181
1.176411716172182
1.176411716172182
1.176411716172182
1.176411716172181
1.176411716172179
1.176411716172181
1.176411716172178
1.176411716172176
1.176411716172177
1.176411716172177
1.176411716172178
1.176411716172179
1.176411716172183
1.176411716172181
1.176411716172181
1.176411716172187
1.176411716172184
1.176411716172183
1.176411716172187
1.176411716172187
1.176411716172187
1.176411716172189
1.176411716172189
1.176411716172185
1.176411716172189
1.176411716172192
1.176411716172188
1.176411716172189
1.176411716172187
1.176411716172185
1.176411716172187
1.176411716172184
1.176411716172187
1.176411716172186
1.176411716172183
1.176411716172181
1.176411716172182
1.176411716172182
1.17641171617218
1.176411716172181
1.176411716172184
1.176411716172185
1.176411716172187
1.176411716172187
1.176411716172187
1.176411716172183
1.176411716172181
1.176411716172182
1.17641171617218
1.176411716172179
1.176411716172181
1.176411716172184
1.17641171617218
1.176411716172181
1.176411716172183
1.176411716172182
1.17641171617218
1.17641171617218
1.176411716172184
1.176411716172184
1.176411716172188
1.176411716172184
1.176411716172182
1.176411716172181
1.176411716172181
1.176411716172181
1.176411716172183
1.17641171617218
1.17641171617218
1.176411716172181
1.176411716172185
1.17641171617218
1.176411716172184
1.176411716172181
1.176411716172184
1.176411716172182
1.176411716172184
1.176411716172187
1.176411716172181
1.176411716172185
1.176411716172182
1.176411716172184
1.176411716172185
1.176411716172185
1.176411716172182
1.176411716172182
1.176411716172187
1.176411716172182
1.176411716172184
1.176411716172182
1.176411716172182
1.176411716172184
1.176411716172179
1.17641171617218
1.176411716172181
1.176411716172187
1.176411716172181
1.176411716172182
1.17641171617218
1.17641171617218
1.176411716172177
1.176411716172177
1.176411716172176
1.176411716172177
1.176411716172177
1.176411716172177
1.176411716172176
1.176411716172177
1.176411716172177
1.176411716172177
1.17641171617218
1.17641171617218
1.176411716172181
1.176411716172182
1.17641171617218
1.176411716172182
1.176411716172184
1.176411716172181
1.176411716172181
1.176411716172181
1.17641171617218
1.176411716172177
1.176411716172178
1.176411716172177
1.176411716172177
1.176411716172177
1.176411716172177
1.176411716172175
1.176411716172177
1.176411716172177
1.176411716172178
1.176411716172179
1.176411716172181
1.176411716172181
1.176411716172182
1.176411716172181
1.176411716172182
1.176411716172182
1.176411716172182
1.176411716172178
1.17641171617218
1.176411716172177
1.17641171617218
1.176411716172177
1.176411716172181
1.17641171617218
1.176411716172181
1.176411716172178
1.176411716172177
1.176411716172177
1.176411716172177
1.176411716172177
1.176411716172179
1.176411716172181
1.176411716172182
1.176411716172181
1.176411716172179
1.176411716172184
1.176411716172181
1.17641171617218
1.176411716172175
1.17641171617218
1.176411716172177
1.176411716172182
1.176411716172179
1.176411716172183
1.176411716172182
1.176411716172185
1.176411716172184
1.176411716172186
1.176411716172185
1.176411716172185
1.176411716172184
1.176411716172183
1.176411716172182
1.176411716172182
1.176411716172182
1.176411716172179
1.176411716172182
1.176411716172183
1.176411716172181
1.17641171617218
1.176411716172184
1.176411716172182
1.176411716172181
1.17641171617218
1.176411716172177
1.176411716172177
1.176411716172177
1.176411716172179
1.176411716172181
1.176411716172182
1.176411716172184
1.176411716172179
1.176411716172181
1.176411716172182
1.176411716172181
1.176411716172181
1.176411716172182
1.176411716172181
)
;

boundaryField
{
    inlet
    {
        type            calculated;
        value           uniform 1.176411716172193;
    }
    outlet
    {
        type            calculated;
        value           uniform 1.17641171617218;
    }
    frontAndBack
    {
        type            empty;
    }
}


// ************************************************************************* //
