/*--------------------------------*- C++ -*----------------------------------*\
| =========                 |                                                 |
| \\      /  F ield         | OpenFOAM: The Open Source CFD Toolbox           |
|  \\    /   O peration     | Version:  v2012                                 |
|   \\  /    A nd           | Website:  www.openfoam.com                      |
|    \\/     M anipulation  |                                                 |
\*---------------------------------------------------------------------------*/
FoamFile
{
    version     2.0;
    format      ascii;
    class       volScalarField;
    location    "0.002";
    object      T;
}
// * * * * * * * * * * * * * * * * * * * * * * * * * * * * * * * * * * * * * //

dimensions      [0 0 0 1 0 0 0];


internalField   nonuniform List<scalar> 
1000
(
299.9888676278
299.9906777991766
299.9843552092053
299.9796414842863
299.9750769165796
299.9710747957757
299.9673932404237
299.9640446992382
299.9610813647138
299.9590351302136
299.9584435076455
299.9584409248043
299.9587179904536
299.9594793943743
299.9610287879915
299.9634662826879
299.9667156644894
299.9706146188077
299.9750242721599
299.979853413328
299.9850321104686
299.9904865622
299.9961297287007
300.0018588147486
300.0075568380312
300.0131040923077
300.0183995505039
300.0233861912139
300.0280691007147
300.0324819351119
300.0365004015248
300.0395103008668
300.0407946990827
300.0409505792977
300.0408931009397
300.040713506139
300.0401600814859
300.0390390278281
300.0371472300274
300.0343747205793
300.0307355531536
300.0263598824743
300.0214351518932
300.0161384695922
300.0106024560661
300.0049221012545
299.9991788684367
299.9934584668441
299.9878523129621
299.9824365927847
299.9772347093669
299.972210264646
299.967382622479
299.963134748354
299.9603831804803
299.9595127675407
299.9594574921003
299.9594807841941
299.9596727792213
299.9601463704691
299.9610990948956
299.9627080874028
299.9651162441917
299.9683882907783
299.9724894764082
299.9772904044165
299.9826018274543
299.9882252835434
299.9939934933632
299.9997827047611
300.0055049833453
300.0111048591583
300.0165701742673
300.0219351703753
300.0272344821755
300.0323545580237
300.0367475694646
300.0394172383897
300.0401879715857
300.0402376528887
300.0401904419924
300.0400440537345
300.0396411212506
300.0388410563081
300.0374763902053
300.0353965463042
300.0324948969929
300.0287395328194
300.0241880636935
300.0189802997508
300.0133113662082
300.0073930357243
300.001412523503
299.9954998393161
299.9897131177268
299.9840429710802
299.9784350511601
299.972857464087
299.9674926337992
299.9630623249158
299.9606259853929
299.9600468662587
299.960030160419
299.9600556867064
299.9602112465835
299.9605840647782
299.9613192448893
299.962562986586
299.9644578057926
299.967116450958
299.9705980907146
299.9748874516725
299.9798868686533
299.9854292172123
299.9913098587836
299.9973269387706
300.003320467919
300.0092042018744
300.0149794241814
300.0207101727791
300.0264313043305
300.03194399608
300.0365119617769
300.0390646471249
300.0397086923496
300.0397431137188
300.0397059803032
300.0395892024109
300.0392737418342
300.0386480754248
300.0375745492927
300.0359147452631
300.033544902347
300.030379344615
300.0263913950776
300.0216272326802
300.0162086913297
300.0103190913649
300.0041675778816
299.9979389870724
299.9917494269237
299.9856287961447
299.979545819156
299.9735055107969
299.9677865956526
299.9632588065058
299.9609597949657
299.9604739680628
299.9604634760368
299.9604856485627
299.960612591885
299.9609154520702
299.9615111943149
299.9625227577541
299.964078429007
299.9662954470389
299.9692628900708
299.9730217736917
299.977548562525
299.9827500778358
299.9884738980501
299.9945336531179
300.0007474844082
300.006983120537
300.0131894405784
300.0193823987662
300.0255483687172
300.0314184863436
300.0361627679318
300.0387085371945
300.0393194289746
300.0393510130937
300.0393218195644
300.0392293815389
300.0389769381488
300.0384727226628
300.0376003080564
300.0362365448892
300.0342606275869
300.0315706988807
300.028101070901
300.0238380552984
300.0188319060193
300.0131983578828
300.0071010588628
300.0007142542746
299.9941789493425
299.987574320208
299.9809312572167
299.9743344689606
299.9681840208854
299.9634908195408
299.9612550318743
299.9608218051625
299.9608136991476
299.9608323511207
299.9609375739914
299.9611884161395
299.9616825364727
299.9625251596012
299.9638304900938
299.9657106034611
299.9682633269475
299.971556261843
299.9756108485089
299.9803923696338
299.9858096857059
299.9917264672353
299.997986772908
300.0044536816727
300.0110437323058
300.0177216097206
300.0244072720461
300.0307389502718
300.0357684985357
300.0383893577158
300.038997360366
300.0390286656232
300.0390053549463
300.0389312714207
300.0387255698221
300.0383113811066
300.0375889294918
300.036449257647
300.0347795448748
300.0324749733114
300.0294518665853
300.0256613454667
300.0211024203033
300.0158295479048
300.009946391919
300.0035825943808
299.996861328641
299.9898748516487
299.982697375808
299.9754937647338
299.9688026000442
299.9638096492546
299.9615311621614
299.9611136675784
299.9611055242904
299.9611209589203
299.9612090766663
299.9614198636631
299.961836422756
299.9625497258406
299.9636611582066
299.9652747667914
299.967488698018
299.9703828757134
299.9740054808423
299.9783625488357
299.9834135816724
299.9890750085538
299.9952353497943
300.0017834195476
300.0086363664265
300.0157336628184
300.0229430370819
300.0298100943231
300.0352450047187
300.0380433246056
300.0386831034595
300.038716184844
300.0386966748992
300.0386317480675
300.038449739012
300.0380796489835
300.0374275393156
300.0363866602557
300.0348391191176
300.0326626573811
300.0297408840892
300.0259800326186
300.021340572234
300.0159090151548
300.010064728027
300.0047467613194
300.0013207446941
300.0001521346112
300.0000047304517
300.0000000259389
300.0000000000201
300.0000000000021
300.0000000000025
300.000000000002
300.0000000000024
300.0000000000019
300.0000000000029
300.0000000000028
300.0000000000028
300.0000000000026
300.0000000000027
300.0000000000027
300.0000000000026
300.0000000000028
300.0000000000024
300.0000000000023
300.0000000000021
300.0000000000023
300.0000000000018
300.0000000000021
300.0000000000021
300.0000000000022
300.0000000000023
300.0000000000022
300.0000000000019
300.0000000000023
300.0000000000029
300.0000000000026
300.000000000003
300.000000000003
300.0000000000022
300.0000000000019
300.0000000000019
300.0000000000015
300.0000000000019
300.0000000000019
300.0000000000027
300.0000000000031
300.0000000000027
300.0000000000028
300.0000000000028
300.0000000000027
300.000000000002
300.0000000000022
300.000000000003
300.0000000000027
300.0000000000029
300.0000000000026
300.0000000000031
300.0000000000029
300.0000000000027
300.000000000003
300.0000000000027
300.0000000000026
300.0000000000031
300.000000000003
300.0000000000028
300.0000000000025
300.0000000000021
300.0000000000019
300.0000000000022
300.000000000003
300.0000000000032
300.0000000000028
300.0000000000032
300.0000000000029
300.0000000000028
300.0000000000033
300.0000000000034
300.0000000000028
300.0000000000026
300.0000000000029
300.0000000000025
300.0000000000026
300.0000000000025
300.0000000000023
300.000000000002
300.0000000000023
300.0000000000019
300.0000000000021
300.0000000000025
300.0000000000024
300.0000000000022
300.0000000000026
300.0000000000031
300.0000000000024
300.0000000000029
300.000000000002
300.0000000000019
300.0000000000016
300.0000000000021
300.0000000000015
300.0000000000019
300.0000000000016
300.0000000000015
300.0000000000028
300.0000000000028
300.0000000000021
300.000000000002
300.0000000000017
300.0000000000023
300.000000000002
300.0000000000024
300.0000000000021
300.0000000000024
300.0000000000023
300.0000000000031
300.0000000000032
300.0000000000027
300.0000000000029
300.0000000000026
300.0000000000019
300.0000000000024
300.000000000002
300.000000000002
300.0000000000029
300.0000000000027
300.0000000000029
300.0000000000028
300.0000000000024
300.0000000000016
300.0000000000022
300.0000000000019
300.0000000000023
300.0000000000022
300.0000000000017
300.0000000000019
300.0000000000017
300.000000000002
300.0000000000021
300.0000000000021
300.0000000000024
300.0000000000027
300.0000000000027
300.0000000000035
300.000000000003
300.0000000000032
300.0000000000024
300.0000000000024
300.0000000000023
300.0000000000021
300.0000000000027
300.0000000000032
300.0000000000027
300.000000000003
300.0000000000031
300.0000000000027
300.0000000000023
300.0000000000019
300.000000000002
300.0000000000028
300.000000000003
300.0000000000026
300.0000000000019
300.0000000000013
300.0000000000019
300.0000000000013
300.0000000000018
300.0000000000013
300.0000000000016
300.0000000000019
300.0000000000029
300.0000000000025
300.0000000000025
300.0000000000024
300.0000000000024
300.0000000000026
300.0000000000018
300.0000000000016
300.0000000000022
300.000000000002
300.000000000002
300.0000000000016
300.0000000000018
300.0000000000014
300.0000000000016
300.0000000000014
300.0000000000019
300.0000000000014
300.0000000000022
300.0000000000019
300.0000000000016
300.0000000000016
300.0000000000015
300.0000000000016
300.0000000000016
300.0000000000021
300.0000000000022
300.0000000000017
300.0000000000023
300.0000000000017
300.0000000000017
300.0000000000019
300.0000000000014
300.0000000000016
300.0000000000024
300.0000000000027
300.0000000000024
300.0000000000026
300.0000000000023
300.0000000000022
300.0000000000022
300.0000000000026
300.0000000000023
300.0000000000022
300.0000000000019
300.0000000000022
300.000000000002
300.0000000000025
300.0000000000026
300.000000000002
300.0000000000025
300.0000000000022
300.0000000000025
300.0000000000022
300.000000000002
300.0000000000024
300.0000000000026
300.0000000000028
300.0000000000021
300.000000000002
300.0000000000022
300.0000000000025
300.0000000000022
300.0000000000024
300.0000000000018
300.0000000000017
300.0000000000025
300.000000000002
300.0000000000015
300.0000000000019
300.0000000000022
300.0000000000023
300.0000000000028
300.0000000000022
300.0000000000025
300.0000000000023
300.0000000000022
300.0000000000022
300.0000000000022
300.0000000000023
300.000000000002
300.0000000000019
300.0000000000023
300.0000000000023
300.0000000000024
300.000000000003
300.0000000000022
300.000000000003
300.0000000000028
300.0000000000031
300.000000000003
300.000000000003
300.000000000003
300.0000000000031
300.000000000003
300.0000000000031
300.0000000000031
300.0000000000034
300.0000000000034
300.0000000000034
300.0000000000034
300.0000000000035
300.0000000000032
300.0000000000022
300.0000000000022
300.0000000000015
300.0000000000019
300.0000000000015
300.0000000000021
300.0000000000016
300.0000000000023
300.0000000000031
300.0000000000029
300.0000000000031
300.0000000000022
300.0000000000023
300.000000000002
300.0000000000015
300.0000000000018
300.0000000000018
300.0000000000018
300.0000000000014
300.0000000000022
300.0000000000024
300.0000000000029
300.0000000000031
300.000000000003
300.0000000000022
300.0000000000026
300.0000000000023
300.0000000000025
300.0000000000031
300.000000000003
300.0000000000028
300.000000000003
300.0000000000025
300.0000000000024
300.0000000000028
300.000000000003
300.000000000003
300.0000000000035
300.0000000000029
300.0000000000027
300.000000000003
300.0000000000032
300.0000000000034
300.0000000000027
300.0000000000036
300.0000000000036
300.000000000003
300.000000000003
300.0000000000034
300.0000000000033
300.0000000000033
300.000000000003
300.0000000000033
300.0000000000034
300.0000000000035
300.0000000000035
300.0000000000038
300.0000000000032
300.0000000000032
300.0000000000036
300.0000000000035
300.000000000003
300.0000000000035
300.0000000000034
300.0000000000035
300.0000000000032
300.0000000000029
300.0000000000031
300.0000000000027
300.0000000000025
300.0000000000022
300.0000000000025
300.0000000000029
300.0000000000025
300.0000000000028
300.0000000000035
300.0000000000032
300.000000000003
300.0000000000027
300.0000000000026
300.0000000000031
300.0000000000027
300.0000000000021
300.0000000000023
300.0000000000026
300.0000000000018
300.0000000000025
300.0000000000021
300.000000000002
300.0000000000017
300.0000000000021
300.0000000000026
300.0000000000023
300.000000000002
300.0000000000026
300.000000000003
300.0000000000025
300.0000000000025
300.0000000000026
300.0000000000025
300.0000000000024
300.0000000000025
300.0000000000021
300.0000000000025
300.0000000000023
300.0000000000031
300.0000000000028
300.0000000000031
300.0000000000028
300.0000000000027
300.000000000002
300.0000000000024
300.0000000000019
300.0000000000024
300.0000000000022
300.0000000000028
300.000000000003
300.0000000000027
300.0000000000032
300.0000000000027
300.0000000000022
300.0000000000023
300.0000000000023
300.0000000000019
300.0000000000024
300.0000000000026
300.0000000000019
300.0000000000019
300.0000000000025
300.0000000000027
300.0000000000031
300.0000000000028
300.0000000000019
300.0000000000019
300.0000000000014
300.0000000000015
300.0000000000021
300.0000000000015
300.0000000000021
300.0000000000022
300.0000000000024
300.0000000000024
300.0000000000026
300.0000000000027
300.0000000000027
300.0000000000027
300.0000000000027
300.0000000000028
300.0000000000026
300.0000000000022
300.0000000000021
300.0000000000024
300.0000000000027
300.0000000000023
300.0000000000025
300.0000000000028
300.000000000003
300.0000000000031
300.0000000000028
300.0000000000026
300.0000000000022
300.0000000000031
300.0000000000031
300.0000000000031
300.0000000000031
300.000000000003
300.0000000000028
300.0000000000019
300.0000000000023
300.0000000000019
300.0000000000024
300.0000000000031
300.0000000000031
300.000000000003
300.0000000000023
300.0000000000019
300.0000000000016
300.0000000000021
300.0000000000027
300.0000000000031
300.0000000000027
300.0000000000017
300.0000000000019
300.0000000000019
300.0000000000019
300.0000000000014
300.0000000000016
300.0000000000021
300.000000000002
300.0000000000016
300.000000000002
300.0000000000019
300.0000000000016
300.0000000000018
300.0000000000019
300.0000000000016
300.0000000000018
300.0000000000024
300.000000000002
300.0000000000023
300.0000000000017
300.0000000000024
300.0000000000033
300.0000000000036
300.0000000000036
300.0000000000035
300.000000000003
300.0000000000023
300.0000000000027
300.0000000000026
300.0000000000026
300.0000000000026
300.0000000000024
300.0000000000027
300.000000000003
300.0000000000025
300.0000000000031
300.0000000000023
300.0000000000023
300.0000000000024
300.0000000000024
300.0000000000023
300.000000000002
300.0000000000021
300.0000000000026
300.0000000000019
300.0000000000021
300.0000000000019
300.0000000000019
300.0000000000019
300.0000000000019
300.0000000000019
300.0000000000021
300.0000000000023
300.0000000000016
300.0000000000016
300.0000000000018
300.0000000000011
300.0000000000013
300.0000000000021
300.0000000000021
300.000000000002
300.0000000000016
300.0000000000023
300.0000000000018
300.000000000002
300.0000000000016
300.0000000000019
300.0000000000032
300.0000000000038
300.0000000000036
300.0000000000041
300.0000000000038
300.0000000000036
300.0000000000031
300.0000000000031
300.0000000000025
300.0000000000025
300.0000000000016
300.0000000000019
300.0000000000026
300.0000000000024
300.0000000000027
300.0000000000027
300.0000000000022
300.0000000000016
300.0000000000014
300.0000000000016
300.0000000000014
300.0000000000016
300.0000000000021
300.0000000000025
300.0000000000032
300.0000000000024
300.0000000000022
300.0000000000032
300.0000000000032
300.0000000000035
300.0000000000033
300.0000000000028
300.0000000000023
300.0000000000032
300.000000000003
300.0000000000027
300.0000000000024
300.0000000000021
300.0000000000023
300.0000000000022
300.0000000000026
300.0000000000029
300.0000000000031
300.0000000000031
300.0000000000026
300.000000000003
300.0000000000028
300.0000000000027
300.0000000000024
300.0000000000024
300.0000000000022
300.0000000000019
300.0000000000023
300.0000000000028
300.000000000003
300.0000000000023
300.0000000000023
300.0000000000025
300.0000000000026
300.0000000000029
300.0000000000026
300.0000000000031
300.000000000003
300.000000000003
300.0000000000025
300.0000000000021
300.0000000000017
300.0000000000019
300.0000000000024
300.000000000003
300.0000000000029
300.000000000002
300.0000000000021
300.0000000000026
300.0000000000026
300.0000000000025
300.0000000000024
300.0000000000023
300.0000000000021
300.0000000000016
300.0000000000021
300.0000000000018
300.0000000000016
300.0000000000021
300.0000000000025
300.0000000000028
300.0000000000031
300.0000000000028
300.0000000000031
300.0000000000031
300.0000000000031
300.0000000000031
300.0000000000031
300.0000000000031
300.000000000003
300.0000000000031
300.0000000000031
300.0000000000028
300.0000000000027
300.0000000000026
300.0000000000025
300.000000000002
300.0000000000018
300.0000000000024
300.0000000000026
300.0000000000026
300.0000000000027
300.0000000000026
300.0000000000029
300.0000000000027
300.0000000000027
300.0000000000027
300.0000000000024
300.0000000000027
300.0000000000027
300.0000000000026
300.0000000000024
300.0000000000015
300.0000000000016
300.0000000000018
300.0000000000017
300.0000000000019
300.0000000000019
300.0000000000016
300.0000000000019
300.000000000002
300.000000000003
300.0000000000027
300.0000000000026
300.0000000000027
300.0000000000027
300.0000000000027
300.0000000000027
300.0000000000024
300.0000000000027
300.0000000000026
300.0000000000026
300.0000000000024
300.0000000000029
300.0000000000031
300.0000000000031
300.000000000003
300.0000000000031
300.0000000000031
300.0000000000031
300.0000000000026
300.000000000003
300.0000000000027
300.0000000000028
300.0000000000016
300.0000000000016
300.0000000000015
300.0000000000016
300.0000000000017
300.0000000000024
300.0000000000027
300.0000000000027
300.0000000000027
300.000000000002
300.0000000000016
300.0000000000018
300.0000000000016
300.0000000000011
300.0000000000019
300.0000000000016
300.0000000000023
300.0000000000024
300.000000000003
300.0000000000027
300.0000000000031
300.0000000000028
300.0000000000033
300.0000000000031
300.0000000000035
300.000000000003
300.0000000000035
300.0000000000034
300.0000000000035
300.000000000003
300.0000000000032
300.0000000000031
300.0000000000031
300.0000000000031
300.0000000000028
300.0000000000031
300.0000000000031
300.000000000002
300.000000000002
300.0000000000019
300.0000000000019
300.000000000002
300.0000000000028
300.0000000000026
300.0000000000027
300.0000000000027
300.000000000002
300.0000000000016
300.0000000000019
300.0000000000019
300.0000000000015
300.0000000000016
300.0000000000019
300.0000000000016
300.0000000000016
300.0000000000019
300.0000000000016
)
;

boundaryField
{
    inlet
    {
        type            fixedValue;
        value           uniform 300;
    }
    outlet
    {
        type            characteristicVelocityInletOutletTemperature;
        UName           U;
        pName           p;
        TName           T;
        phiName         phi;
        rhoName         rho;
        U               (0 0 0);
        p               101325;
        T               300;
        value           uniform 300.0000000000016;
    }
    frontAndBack
    {
        type            empty;
    }
}


// ************************************************************************* //
