/*--------------------------------*- C++ -*----------------------------------*\
| =========                 |                                                 |
| \\      /  F ield         | OpenFOAM: The Open Source CFD Toolbox           |
|  \\    /   O peration     | Version:  v2012                                 |
|   \\  /    A nd           | Website:  www.openfoam.com                      |
|    \\/     M anipulation  |                                                 |
\*---------------------------------------------------------------------------*/
FoamFile
{
    version     2.0;
    format      ascii;
    class       volVectorField;
    location    "0.002";
    object      U;
}
// * * * * * * * * * * * * * * * * * * * * * * * * * * * * * * * * * * * * * //

dimensions      [0 1 -1 0 0 0 0];


internalField   nonuniform List<vector> 
1000
(
(-0.001035761231394173 0 0)
(-0.0328745770677701 0 0)
(-0.04109123476700731 0 0)
(-0.05632826969020625 0 0)
(-0.0703239127407425 0 0)
(-0.08345624692510593 0 0)
(-0.09469723697139723 0 0)
(-0.1043301865574619 0 0)
(-0.1127462132016447 0 0)
(-0.1186059019120112 0 0)
(-0.1202934828434981 0 0)
(-0.120172869625467 0 0)
(-0.1195367960969757 0 0)
(-0.1172822700662936 0 0)
(-0.1127509074065762 0 0)
(-0.1056483149061964 0 0)
(-0.09623021861439716 0 0)
(-0.08495538375762368 0 0)
(-0.07221648933924622 0 0)
(-0.0582691424345021 0 0)
(-0.04330070081750999 0 0)
(-0.02751946705639385 0 0)
(-0.01119451948111596 0 0)
(0.00536407460943431 0 0)
(0.02183811591001171 0 0)
(0.03790334080795187 0 0)
(0.05324236266544267 0 0)
(0.06764906976170207 0 0)
(0.08116061764411463 0 0)
(0.09394199906533482 0 0)
(0.1056193043781286 0 0)
(0.11431489153955 0 0)
(0.1179630326460255 0 0)
(0.1183878215622414 0 0)
(0.1183455866535218 0 0)
(0.1177358238236248 0 0)
(0.1161660583189712 0 0)
(0.1129188660593945 0 0)
(0.1074456639351913 0 0)
(0.09942580549768724 0 0)
(0.08890347016809694 0 0)
(0.07624862503503742 0 0)
(0.06199938894893302 0 0)
(0.04667611479005929 0 0)
(0.03066991123222907 0 0)
(0.01424546029719155 0 0)
(-0.002375159380744103 0 0)
(-0.01893251041754337 0 0)
(-0.03513929221663686 0 0)
(-0.05078596350090838 0 0)
(-0.06584166516464184 0 0)
(-0.08040640017470536 0 0)
(-0.09436741692457189 0 0)
(-0.106611073611632 0 0)
(-0.1145614840144808 0 0)
(-0.1171292554021427 0 0)
(-0.1173229726081154 0 0)
(-0.1171621779727169 0 0)
(-0.1166658517993343 0 0)
(-0.1152773921934975 0 0)
(-0.1125240598154792 0 0)
(-0.1078710959797533 0 0)
(-0.1009059857568838 0 0)
(-0.09143829648304995 0 0)
(-0.07957352676267623 0 0)
(-0.06568987630922805 0 0)
(-0.05032863721166511 0 0)
(-0.03405735294666865 0 0)
(-0.01736736794465192 0 0)
(-0.000627980439662967 0 0)
(0.01591454996656443 0 0)
(0.03211874246728853 0 0)
(0.04794255963237551 0 0)
(0.06345458634861915 0 0)
(0.07875705941589702 0 0)
(0.09356782969378859 0 0)
(0.1063090317977136 0 0)
(0.1140402988474846 0 0)
(0.1162305796741719 0 0)
(0.1163443843186143 0 0)
(0.1162822868871091 0 0)
(0.1158132406940566 0 0)
(0.1146616908122318 0 0)
(0.1123460456626136 0 0)
(0.108397999654012 0 0)
(0.1023811320509873 0 0)
(0.09399054589100843 0 0)
(0.08313039827992696 0 0)
(0.06996301007121108 0 0)
(0.05489705327294531 0 0)
(0.03850351964577266 0 0)
(0.02138999075224116 0 0)
(0.004087311265690925 0 0)
(-0.01302391978598871 0 0)
(-0.02975860969574706 0 0)
(-0.04614594978368697 0 0)
(-0.06236941942552061 0 0)
(-0.07852511162774123 0 0)
(-0.09404685449946081 0 0)
(-0.1068346863207592 0 0)
(-0.1138678161100043 0 0)
(-0.1155711126509982 0 0)
(-0.1156526923775505 0 0)
(-0.1155177443938428 0 0)
(-0.1151015652965026 0 0)
(-0.114013173341793 0 0)
(-0.1118875228589173 0 0)
(-0.1082907044336771 0 0)
(-0.1028104984682028 0 0)
(-0.09511805144987073 0 0)
(-0.08504548472266128 0 0)
(-0.07264039659395544 0 0)
(-0.05818116636750823 0 0)
(-0.04214594582137726 0 0)
(-0.02513177662766802 0 0)
(-0.0077312454811979 0 0)
(0.009598187577432625 0 0)
(0.02662121618559707 0 0)
(0.04333753233837565 0 0)
(0.05990973200047715 0 0)
(0.0764388482925826 0 0)
(0.09238387569883021 0 0)
(0.1056211984658444 0 0)
(0.1130131809330519 0 0)
(0.1148487294471325 0 0)
(0.1149244239542374 0 0)
(0.1148706219268067 0 0)
(0.114501138699587 0 0)
(0.1135980823932431 0 0)
(0.111787564984047 0 0)
(0.1086819309368992 0 0)
(0.1038800992988827 0 0)
(0.09702707187596271 0 0)
(0.08787267460826648 0 0)
(0.07633605963996576 0 0)
(0.06255371714701081 0 0)
(0.04688349927403992 0 0)
(0.02985217502821176 0 0)
(0.012056110830116 0 0)
(-0.00596697189841647 0 0)
(-0.02386796406832246 0 0)
(-0.04156143009204854 0 0)
(-0.05915818871535967 0 0)
(-0.07664736601132262 0 0)
(-0.09319323929375024 0 0)
(-0.1062700703853 0 0)
(-0.1129082849800042 0 0)
(-0.1143335244061295 0 0)
(-0.1143913792376271 0 0)
(-0.1142808248119632 0 0)
(-0.1139385042754659 0 0)
(-0.1130551873566974 0 0)
(-0.1113325256838174 0 0)
(-0.1084071375409409 0 0)
(-0.1039078277526016 0 0)
(-0.09749323655501889 0 0)
(-0.08890829432003755 0 0)
(-0.07803717716306928 0 0)
(-0.06494458481049602 0 0)
(-0.04989576926055895 0 0)
(-0.03333598546187012 0 0)
(-0.01581135312935962 0 0)
(0.002156881660058796 0 0)
(0.0201974791196434 0 0)
(0.03815835434810318 0 0)
(0.05606739584537124 0 0)
(0.07388692356884363 0 0)
(0.0908668432209896 0 0)
(0.1046094034044777 0 0)
(0.1119784463397344 0 0)
(0.1137230074027782 0 0)
(0.1137963298796166 0 0)
(0.1137551053890247 0 0)
(0.1134616419665314 0 0)
(0.1127392057011631 0 0)
(0.1112801374989538 0 0)
(0.1087563781377248 0 0)
(0.1048109170817056 0 0)
(0.09909693879082393 0 0)
(0.09131806836384945 0 0)
(0.08128109434326028 0 0)
(0.06894864260447937 0 0)
(0.05447077475216973 0 0)
(0.0381795292090778 0 0)
(0.02054091968007947 0 0)
(0.002061396840600541 0 0)
(-0.01684000569350444 0 0)
(-0.03593524471845699 0 0)
(-0.05515201655676639 0 0)
(-0.07424795448516623 0 0)
(-0.09204142517487826 0 0)
(-0.105600552582084 0 0)
(-0.1120579797897339 0 0)
(-0.1133270395492331 0 0)
(-0.1133735032717094 0 0)
(-0.113281580013866 0 0)
(-0.112997416034375 0 0)
(-0.1122659345695123 0 0)
(-0.1108370944150107 0 0)
(-0.108400272499258 0 0)
(-0.1046250018550366 0 0)
(-0.09918520342029005 0 0)
(-0.09180008307078087 0 0)
(-0.08227646274018899 0 0)
(-0.07054942367644888 0 0)
(-0.05671582255764204 0 0)
(-0.04104315148988349 0 0)
(-0.02393161549903661 0 0)
(-0.005827829245821764 0 0)
(0.01288159794962434 0 0)
(0.03195077741907854 0 0)
(0.05126227368904813 0 0)
(0.0705876203745575 0 0)
(0.08890356517950146 0 0)
(0.1034680003653341 0 0)
(0.1110517989703862 0 0)
(0.1127912981279024 0 0)
(0.1128681479131801 0 0)
(0.1128369383729763 0 0)
(0.1126001323971159 0 0)
(0.1120118971459467 0 0)
(0.1108132807072053 0 0)
(0.1087233982700561 0 0)
(0.10542620221158 0 0)
(0.1005976548582395 0 0)
(0.09393321337384081 0 0)
(0.08518805858418733 0 0)
(0.07422256498937889 0 0)
(0.06103794068966788 0 0)
(0.04578948740549657 0 0)
(0.02877072871745105 0 0)
(0.01035871667240854 0 0)
(-0.009080704675141492 0 0)
(-0.02928178391557172 0 0)
(-0.05004449347665346 0 0)
(-0.0708935482366419 0 0)
(-0.0902502476844553 0 0)
(-0.1046790087491294 0 0)
(-0.1112619914853953 0 0)
(-0.1124833586291973 0 0)
(-0.1125255694890252 0 0)
(-0.112449194930867 0 0)
(-0.1122113579452796 0 0)
(-0.1115966707537896 0 0)
(-0.1103921157831576 0 0)
(-0.1083292359694659 0 0)
(-0.1051147651963041 0 0)
(-0.100446119317644 0 0)
(-0.09404113960963031 0 0)
(-0.08567064433563519 0 0)
(-0.07519291860113303 0 0)
(-0.06258750303607058 0 0)
(-0.04797472693673284 0 0)
(-0.03160122458291494 0 0)
(-0.01378569363097989 0 0)
(0.005158068421071794 0 0)
(0.02498634816045379 0 0)
(0.04551139315040928 0 0)
(0.06635386986192852 0 0)
(0.08621859007310219 0 0)
(0.1019525017536284 0 0)
(0.1100481435556543 0 0)
(0.1118827941169449 0 0)
(0.1119680807212378 0 0)
(0.1119409876730897 0 0)
(0.1117349797085161 0 0)
(0.1112140177392238 0 0)
(0.1101424422479473 0 0)
(0.1082565181359442 0 0)
(0.1052459133934484 0 0)
(0.1007698934338029 0 0)
(0.0944747944765755 0 0)
(0.0860239551981407 0 0)
(0.0751461325206039 0 0)
(0.06172693821873523 0 0)
(0.04601653807157854 0 0)
(0.02911217100744518 0 0)
(0.01373001998774485 0 0)
(0.003820261764956303 0 0)
(0.0004400509904824581 0 0)
(1.368290814758761e-05 0 0)
(7.502221637271089e-08 0 0)
(5.087159524679529e-11 0 0)
(-2.321940576916386e-12 0 0)
(-2.707851903791643e-12 0 0)
(-3.476340202667666e-12 0 0)
(-4.946345253588096e-12 0 0)
(-6.633562671732418e-12 0 0)
(-6.765770155830225e-12 0 0)
(-5.749612807202777e-12 0 0)
(-5.202786888850098e-12 0 0)
(-3.752762616579413e-12 0 0)
(-2.432342750410722e-12 0 0)
(-1.430020909602669e-12 0 0)
(-2.172364067760248e-12 0 0)
(-3.059022958602409e-12 0 0)
(-3.36944998337604e-12 0 0)
(-3.607552403227825e-12 0 0)
(-2.789490593745426e-12 0 0)
(-7.431781353086804e-13 0 0)
(4.523296542093406e-14 0 0)
(1.885855407303917e-13 0 0)
(8.405772965232926e-13 0 0)
(4.937903327333765e-13 0 0)
(-9.422689868251957e-13 0 0)
(-8.214601134383514e-13 0 0)
(-9.953050145415574e-13 0 0)
(-3.105109004149336e-12 0 0)
(-3.24075775682579e-12 0 0)
(-1.919408151492138e-12 0 0)
(-5.52940982843693e-13 0 0)
(8.188403175172649e-13 0 0)
(1.217909483433683e-12 0 0)
(1.843809226878038e-13 0 0)
(-9.162307780764433e-13 0 0)
(-1.827327486256002e-12 0 0)
(-3.128638130678223e-12 0 0)
(-4.263940689288321e-12 0 0)
(-4.217040365520887e-12 0 0)
(-1.873451511802831e-12 0 0)
(-7.12030863231496e-13 0 0)
(5.450453831721877e-13 0 0)
(2.329687955462952e-12 0 0)
(3.071213830574557e-12 0 0)
(1.720378932721221e-12 0 0)
(5.172108230433069e-13 0 0)
(1.401124206299316e-12 0 0)
(2.719942452117635e-12 0 0)
(3.631081077890316e-12 0 0)
(3.408602670563906e-12 0 0)
(3.012154839032229e-12 0 0)
(3.498978705370403e-12 0 0)
(2.887829756851786e-12 0 0)
(3.067679821806102e-12 0 0)
(2.392266060205924e-12 0 0)
(9.570873875494073e-13 0 0)
(1.435258396118814e-12 0 0)
(2.356807495281251e-12 0 0)
(2.075081130749465e-12 0 0)
(6.6674483287588e-13 0 0)
(-1.19077096228492e-13 0 0)
(-2.851506049891499e-13 0 0)
(-7.059967248349749e-13 0 0)
(-1.520476214290653e-12 0 0)
(-2.258420433245005e-12 0 0)
(-1.469055297483077e-12 0 0)
(1.981969681634062e-13 0 0)
(1.085797439758544e-12 0 0)
(1.221150400439633e-14 0 0)
(-1.714253378525655e-12 0 0)
(-2.255822762148301e-12 0 0)
(-1.932507861606841e-12 0 0)
(-2.008123698461456e-12 0 0)
(-1.588298505521945e-12 0 0)
(-6.520325371851424e-13 0 0)
(-9.327103381658826e-13 0 0)
(-6.831888376722448e-13 0 0)
(-3.433479561567981e-13 0 0)
(-1.503784060225267e-13 0 0)
(1.158777852774666e-12 0 0)
(1.456126941470659e-12 0 0)
(1.564825390509983e-12 0 0)
(1.990684451605581e-12 0 0)
(8.544203019138924e-13 0 0)
(-2.764562595098693e-13 0 0)
(-2.250893390176557e-13 0 0)
(7.563729080741758e-13 0 0)
(-2.459813924162264e-13 0 0)
(-4.494689723482715e-13 0 0)
(-2.199178082048707e-13 0 0)
(-1.02662615723992e-12 0 0)
(-1.804670715754228e-12 0 0)
(-1.746413235134897e-12 0 0)
(-1.612573265257648e-12 0 0)
(-1.865605967607445e-12 0 0)
(-2.453182405528571e-12 0 0)
(-4.157809755198739e-12 0 0)
(-3.871844942589021e-12 0 0)
(-2.34276328482186e-12 0 0)
(-2.40626268189319e-12 0 0)
(-3.131277138933188e-12 0 0)
(-1.968965877934279e-12 0 0)
(-7.902290693083187e-13 0 0)
(-1.643857605954318e-12 0 0)
(-2.38619847355461e-12 0 0)
(-2.713941052814117e-12 0 0)
(-3.21642423113138e-12 0 0)
(-2.777400459724852e-12 0 0)
(-1.494346597263054e-12 0 0)
(3.728817195027599e-13 0 0)
(8.657849693393004e-13 0 0)
(3.555045250422428e-13 0 0)
(1.269182626061785e-12 0 0)
(1.256987076365823e-12 0 0)
(7.510236696559519e-13 0 0)
(1.576915678735733e-12 0 0)
(1.146598126225141e-12 0 0)
(1.363997620244833e-12 0 0)
(2.880982735452583e-12 0 0)
(3.16257434924801e-12 0 0)
(2.268868857617919e-12 0 0)
(1.399524392172405e-12 0 0)
(3.485884588710034e-13 0 0)
(2.112654933138451e-13 0 0)
(1.117048865730334e-12 0 0)
(1.552493019795695e-12 0 0)
(1.928090394364335e-12 0 0)
(2.135876605566457e-12 0 0)
(3.158186182377544e-12 0 0)
(2.737455509830379e-12 0 0)
(1.43006994870371e-12 0 0)
(2.700985430467226e-12 0 0)
(3.195554373319355e-12 0 0)
(2.805267532894709e-12 0 0)
(2.5209632997568e-12 0 0)
(2.071557735717353e-12 0 0)
(2.950453347445739e-12 0 0)
(3.13997303010533e-12 0 0)
(2.778392677590559e-12 0 0)
(2.086402830875029e-12 0 0)
(1.110083014630278e-12 0 0)
(5.328079615859126e-13 0 0)
(-3.23422445930796e-13 0 0)
(-1.219596880500628e-14 0 0)
(2.2819488151687e-12 0 0)
(2.905217284009481e-12 0 0)
(1.578608783673271e-12 0 0)
(7.477429184527853e-14 0 0)
(2.268585930043886e-14 0 0)
(5.806926106623542e-13 0 0)
(-3.165218468727035e-13 0 0)
(-1.470902070437083e-12 0 0)
(-7.397880967807846e-13 0 0)
(9.936119620249715e-13 0 0)
(1.98463260935558e-12 0 0)
(2.297575553885533e-12 0 0)
(1.270075379207147e-12 0 0)
(1.388259682975072e-12 0 0)
(1.937675227131256e-12 0 0)
(2.297546205660666e-12 0 0)
(2.999967608609584e-12 0 0)
(2.181082578250691e-12 0 0)
(8.545517250967988e-13 0 0)
(1.343028450490451e-12 0 0)
(1.759393824035683e-12 0 0)
(2.186265954670821e-12 0 0)
(3.989258645064148e-12 0 0)
(4.763837287824396e-12 0 0)
(5.29578974929225e-12 0 0)
(4.950611177704425e-12 0 0)
(3.112958529570057e-12 0 0)
(3.444200965424144e-12 0 0)
(5.046321992697486e-12 0 0)
(5.333197945446493e-12 0 0)
(4.588997160636942e-12 0 0)
(3.883047233271796e-12 0 0)
(2.959937587686331e-12 0 0)
(2.83745928314911e-12 0 0)
(3.864140682906191e-12 0 0)
(5.34801018915932e-12 0 0)
(6.511926908797241e-12 0 0)
(7.476772650780603e-12 0 0)
(9.131107361723937e-12 0 0)
(9.01286507762129e-12 0 0)
(7.291602968841274e-12 0 0)
(6.717048498450954e-12 0 0)
(7.010073452352854e-12 0 0)
(5.958236549141476e-12 0 0)
(4.182179294821159e-12 0 0)
(3.373654772027128e-12 0 0)
(2.605164479052265e-12 0 0)
(2.479185804379484e-12 0 0)
(3.112116153123913e-12 0 0)
(2.387108105205196e-12 0 0)
(2.513115233935366e-12 0 0)
(2.881719019181726e-12 0 0)
(2.068971934405531e-12 0 0)
(1.080583983959204e-12 0 0)
(5.241918750704109e-13 0 0)
(3.520266337198365e-13 0 0)
(-7.045713471735491e-14 0 0)
(-1.15792371974981e-12 0 0)
(-2.274111815012669e-12 0 0)
(-2.556680948126505e-12 0 0)
(-1.61083761992248e-12 0 0)
(2.417008502060649e-13 0 0)
(1.739491831069915e-12 0 0)
(2.280153825305254e-12 0 0)
(3.005997314030732e-12 0 0)
(2.921694813232906e-12 0 0)
(1.359536748579857e-12 0 0)
(1.298576747288362e-14 0 0)
(-1.503006341211227e-12 0 0)
(-2.270601582261565e-12 0 0)
(-1.536129820692341e-12 0 0)
(2.61641271870544e-13 0 0)
(1.776921286657399e-12 0 0)
(1.48397482660832e-12 0 0)
(8.823975169122139e-13 0 0)
(4.137662205126878e-13 0 0)
(-1.100641853750836e-12 0 0)
(-2.501903432784051e-12 0 0)
(-4.132659108054034e-12 0 0)
(-4.488226948299275e-12 0 0)
(-3.009469055888444e-12 0 0)
(-1.179529744862472e-12 0 0)
(-3.954720692593879e-13 0 0)
(-7.092523375352085e-13 0 0)
(-2.100162327224297e-12 0 0)
(-3.069517477464889e-12 0 0)
(-3.910954830484821e-12 0 0)
(-5.824284727669778e-12 0 0)
(-5.551381262449766e-12 0 0)
(-4.614295583990058e-12 0 0)
(-4.601278170906118e-12 0 0)
(-3.508511349675001e-12 0 0)
(-2.270576152845573e-12 0 0)
(-1.400423619485106e-12 0 0)
(-1.150876002325519e-12 0 0)
(-2.354059559339875e-12 0 0)
(-3.712860708033606e-12 0 0)
(-5.427963029497465e-12 0 0)
(-6.154691459989561e-12 0 0)
(-5.225393257173488e-12 0 0)
(-5.51916024797701e-12 0 0)
(-7.14995580518215e-12 0 0)
(-8.566095258327582e-12 0 0)
(-9.076392468958769e-12 0 0)
(-7.849748058579012e-12 0 0)
(-8.090506172229417e-12 0 0)
(-9.568370176049641e-12 0 0)
(-1.023423528238405e-11 0 0)
(-1.061149700483186e-11 0 0)
(-9.947363946992772e-12 0 0)
(-8.689464100182298e-12 0 0)
(-7.413294206245705e-12 0 0)
(-6.612675209641158e-12 0 0)
(-6.553606258279686e-12 0 0)
(-6.723155886370664e-12 0 0)
(-7.229940682745551e-12 0 0)
(-7.893213890016974e-12 0 0)
(-7.488158005074875e-12 0 0)
(-6.316372842712233e-12 0 0)
(-7.010115703416671e-12 0 0)
(-7.210899642439898e-12 0 0)
(-5.892107505376324e-12 0 0)
(-5.469594531129892e-12 0 0)
(-4.864554561259633e-12 0 0)
(-4.915880608930091e-12 0 0)
(-4.372543968232011e-12 0 0)
(-2.972150799145435e-12 0 0)
(-2.461934141544441e-12 0 0)
(-3.09563555305103e-12 0 0)
(-3.305914809633024e-12 0 0)
(-1.366452674057115e-12 0 0)
(-1.229211030741585e-12 0 0)
(-1.974334959360213e-13 0 0)
(1.555586035367824e-13 0 0)
(-7.032424624512496e-13 0 0)
(-1.851546036090456e-13 0 0)
(6.737510910730758e-13 0 0)
(1.775194616759887e-12 0 0)
(2.482775658355635e-12 0 0)
(3.440678834917005e-12 0 0)
(4.171778167436209e-12 0 0)
(4.183174872612567e-12 0 0)
(3.724994575565504e-12 0 0)
(2.445300678643286e-12 0 0)
(1.821965486298136e-12 0 0)
(3.149419515658505e-12 0 0)
(2.829551123296092e-12 0 0)
(1.937656938599086e-12 0 0)
(2.859105869442394e-12 0 0)
(2.458353333146554e-12 0 0)
(1.525591860554329e-12 0 0)
(5.389379207283081e-13 0 0)
(-6.08673583588368e-14 0 0)
(1.214449113950302e-12 0 0)
(2.56797449231086e-12 0 0)
(2.63310027891063e-12 0 0)
(1.756030262920411e-12 0 0)
(1.034864098595475e-13 0 0)
(-1.208371381712662e-12 0 0)
(-1.129268159902925e-12 0 0)
(-3.947053627777751e-13 0 0)
(-3.077217404017302e-13 0 0)
(-4.571822096651223e-13 0 0)
(-6.65894372027291e-13 0 0)
(-5.97333390546236e-13 0 0)
(-1.362243877160872e-12 0 0)
(-1.281349443193515e-12 0 0)
(1.013573562929993e-12 0 0)
(1.836827531113642e-12 0 0)
(6.07674677168456e-13 0 0)
(-8.544887311257836e-13 0 0)
(-1.128418247511286e-12 0 0)
(-1.226078533380929e-13 0 0)
(1.244907772853261e-12 0 0)
(2.49761825233741e-12 0 0)
(2.676602241458349e-12 0 0)
(1.239573510989749e-12 0 0)
(-5.478172978672989e-14 0 0)
(-8.00624163780751e-13 0 0)
(-1.344034049580131e-12 0 0)
(-1.597084795452655e-12 0 0)
(-7.07684447069752e-13 0 0)
(1.003221586098956e-12 0 0)
(1.237925444278426e-12 0 0)
(1.274433348328835e-12 0 0)
(1.417851713918004e-12 0 0)
(1.675119319129394e-12 0 0)
(2.165401807572445e-12 0 0)
(1.283067889418239e-12 0 0)
(1.303916376683235e-12 0 0)
(1.939415935636478e-12 0 0)
(2.278396421814518e-12 0 0)
(1.877648949589797e-12 0 0)
(1.539495365816873e-12 0 0)
(2.150645251833519e-12 0 0)
(2.20810431969659e-12 0 0)
(1.503947229868689e-12 0 0)
(1.904654786363715e-12 0 0)
(2.778278873146372e-12 0 0)
(3.782287809687155e-12 0 0)
(3.994446984233251e-12 0 0)
(2.853070994068501e-12 0 0)
(2.857387295720307e-12 0 0)
(3.675408821755661e-12 0 0)
(2.554032391354127e-12 0 0)
(1.471733753796625e-12 0 0)
(2.327107225246416e-12 0 0)
(1.941189180286472e-12 0 0)
(1.060993636217545e-13 0 0)
(-1.263958439599218e-12 0 0)
(-2.369760058165742e-12 0 0)
(-2.235095277178947e-12 0 0)
(-9.32810094480747e-13 0 0)
(5.068039188781523e-13 0 0)
(2.607707620744055e-14 0 0)
(-1.296965135710031e-12 0 0)
(-9.005854865409965e-13 0 0)
(8.683920306477558e-13 0 0)
(2.111520250129673e-12 0 0)
(3.436346538230538e-12 0 0)
(5.030686997383716e-12 0 0)
(5.90617673158138e-12 0 0)
(6.59377993219249e-12 0 0)
(6.308488828685202e-12 0 0)
(5.487032627192419e-12 0 0)
(5.148856415448112e-12 0 0)
(3.674512874439228e-12 0 0)
(3.185960938046766e-12 0 0)
(4.47691624301152e-12 0 0)
(5.077670582467218e-12 0 0)
(4.020633667618803e-12 0 0)
(2.301093877727271e-12 0 0)
(1.160549404810527e-12 0 0)
(1.371775831389416e-12 0 0)
(8.902089254479829e-13 0 0)
(2.129553789075605e-13 0 0)
(-6.18456122025011e-14 0 0)
(-7.293825060482697e-13 0 0)
(-1.04227231110127e-12 0 0)
(-1.902086237037343e-12 0 0)
(-9.162767267161176e-13 0 0)
(-6.959616054612237e-14 0 0)
(-5.303626584750293e-13 0 0)
(8.339863667043024e-14 0 0)
(6.66696972393145e-13 0 0)
(8.341253639732396e-14 0 0)
(-1.584696217493558e-12 0 0)
(-2.218360665976777e-12 0 0)
(-2.494924109923002e-12 0 0)
(-3.252149150225821e-12 0 0)
(-4.476028529026524e-12 0 0)
(-3.901375572727689e-12 0 0)
(-2.476620807750049e-12 0 0)
(-5.146003464232298e-13 0 0)
(6.719348910837003e-13 0 0)
(2.047118910858551e-12 0 0)
(3.114695311936003e-12 0 0)
(3.473786241921675e-12 0 0)
(4.458648750203071e-12 0 0)
(3.589327747661786e-12 0 0)
(1.552552745781591e-12 0 0)
(6.601175916793616e-14 0 0)
(-8.346671460706308e-14 0 0)
(-4.189687106554401e-13 0 0)
(-1.318673337308903e-12 0 0)
(-1.697694139594701e-12 0 0)
(-2.32008586659459e-12 0 0)
(-2.098414034547453e-12 0 0)
(-2.154125910404444e-12 0 0)
(-1.574324234056122e-12 0 0)
(9.59140817180623e-15 0 0)
(8.05003422967091e-13 0 0)
(7.867074268826632e-13 0 0)
(-8.162808145650594e-13 0 0)
(-1.40301841911018e-12 0 0)
(-2.538879403133559e-13 0 0)
(3.728853877521809e-13 0 0)
(7.432658002005047e-13 0 0)
(7.728343635099932e-13 0 0)
(-4.615925941075707e-13 0 0)
(-1.843799044357522e-12 0 0)
(-2.692263120349441e-12 0 0)
(-3.817995009781443e-12 0 0)
(-4.403831857564983e-12 0 0)
(-4.893262350985528e-12 0 0)
(-6.622307253203807e-12 0 0)
(-7.510721473784551e-12 0 0)
(-7.738485425369138e-12 0 0)
(-7.129998012090183e-12 0 0)
(-5.563525095039705e-12 0 0)
(-3.939704516672031e-12 0 0)
(-3.387677256918896e-12 0 0)
(-3.507574019822883e-12 0 0)
(-2.61222712023879e-12 0 0)
(-1.809043421483917e-12 0 0)
(-4.773043949895708e-13 0 0)
(6.806622675675502e-13 0 0)
(1.570873728337786e-12 0 0)
(1.300504053968858e-12 0 0)
(-7.213119350211343e-14 0 0)
(-9.388900479356032e-13 0 0)
(-6.276263753110986e-13 0 0)
(-1.946681286418793e-13 0 0)
(-7.623485620754342e-13 0 0)
(-3.068412665308089e-13 0 0)
(-1.695539572840534e-13 0 0)
(1.45960561975126e-13 0 0)
(5.484766704221253e-13 0 0)
(-4.068025310943635e-13 0 0)
(5.910592812374755e-14 0 0)
(2.014139425357364e-12 0 0)
(2.510536093337232e-12 0 0)
(2.117688208493184e-12 0 0)
(2.864406667747621e-12 0 0)
(2.521878938902081e-12 0 0)
(8.56255927544702e-13 0 0)
(3.659319517759052e-13 0 0)
(4.285417339621116e-13 0 0)
(4.572065290816594e-13 0 0)
(1.485622235158725e-12 0 0)
(1.214450241307564e-12 0 0)
(7.728119875734333e-13 0 0)
(3.111757284181777e-13 0 0)
(-1.896893372972433e-12 0 0)
(-1.562219305725829e-12 0 0)
(-2.269640773350782e-13 0 0)
(3.755396235891157e-13 0 0)
(1.427454265811355e-12 0 0)
(2.032438272384079e-12 0 0)
(9.092789940046407e-13 0 0)
(1.712499991147977e-12 0 0)
(1.886336363729108e-12 0 0)
(1.683807166790506e-12 0 0)
(2.551361238261357e-12 0 0)
(1.597721972311777e-12 0 0)
(2.738379782600654e-13 0 0)
(7.632952747591887e-13 0 0)
(5.103892355863471e-13 0 0)
(-4.893639111105356e-13 0 0)
(-1.038861393751264e-12 0 0)
(-2.673180314990112e-12 0 0)
(-3.18861334463793e-12 0 0)
(-2.247078183554417e-12 0 0)
(-8.501222484888909e-13 0 0)
(8.695974387980345e-15 0 0)
(-1.469294945462153e-13 0 0)
(-9.648408787780967e-14 0 0)
(-5.21586362275381e-13 0 0)
(-1.841164782412948e-12 0 0)
(-2.49746268485675e-12 0 0)
(-2.431433766073789e-12 0 0)
(-1.089203198820069e-12 0 0)
(-4.067432186609642e-13 0 0)
(-1.568146595531621e-12 0 0)
(-2.692244904862892e-12 0 0)
(-1.723081525283577e-12 0 0)
(-1.392708205288074e-12 0 0)
(-1.819440381715423e-12 0 0)
(-7.014660329848946e-13 0 0)
(-1.651891328119446e-13 0 0)
(-1.529688278548259e-13 0 0)
(7.711739061676122e-13 0 0)
(9.215713728891325e-13 0 0)
(-2.364067302051227e-13 0 0)
(-1.762911820789853e-12 0 0)
(-1.913298016162927e-12 0 0)
(-2.519200867538235e-12 0 0)
(-3.338047761573452e-12 0 0)
(-2.186265655603416e-12 0 0)
(-2.127125623604101e-12 0 0)
(-2.150708985756853e-12 0 0)
(-2.91396573459346e-13 0 0)
(-7.833332534882452e-14 0 0)
(-7.267597805444046e-13 0 0)
(-9.9453644733495e-13 0 0)
(-7.650083986088601e-13 0 0)
(2.260671322844116e-13 0 0)
(1.347387004113157e-12 0 0)
(2.894685300424397e-12 0 0)
(4.102180066643783e-12 0 0)
(3.52067255733947e-12 0 0)
(2.301040730878829e-12 0 0)
(2.627951289271223e-12 0 0)
(1.732647768213966e-12 0 0)
(7.719994149782478e-13 0 0)
(9.623055280299196e-13 0 0)
(7.293792125676145e-13 0 0)
(-5.249781145114867e-13 0 0)
(-1.075296532854515e-12 0 0)
(-1.418694422631433e-12 0 0)
(-2.747019316806955e-12 0 0)
(-3.052154499528404e-12 0 0)
(-2.508815746514087e-12 0 0)
(-3.43288449564468e-12 0 0)
(-3.269480263178499e-12 0 0)
(-3.151328005340275e-12 0 0)
(-4.555235808216606e-12 0 0)
(-5.071548305642235e-12 0 0)
(-3.782337476422906e-12 0 0)
(-3.089558129590073e-12 0 0)
(-2.663595545897571e-12 0 0)
(-7.971627376861836e-13 0 0)
(-1.066670549615045e-12 0 0)
(-1.12836987873382e-12 0 0)
(4.633301684695189e-13 0 0)
(1.780340073394818e-12 0 0)
(2.692228153388359e-12 0 0)
(2.258475084829026e-12 0 0)
(1.443910573506231e-12 0 0)
(9.318752190734825e-13 0 0)
(-4.981395437423928e-13 0 0)
(-1.748152986048019e-12 0 0)
(-1.202155092190918e-12 0 0)
(-2.989338555449852e-13 0 0)
(-1.078762910268827e-12 0 0)
(-2.893935125399481e-12 0 0)
(-3.480673711851326e-12 0 0)
(-2.723485366492724e-12 0 0)
(-1.416934873543644e-12 0 0)
(4.320788940606846e-13 0 0)
(1.535195516532289e-12 0 0)
(1.355290418453415e-12 0 0)
(-2.798996652085034e-13 0 0)
(-1.393575460199036e-14 0 0)
(1.26389216153481e-12 0 0)
(6.623711789708247e-13 0 0)
(-8.537044204044952e-13 0 0)
(-3.990694657957374e-13 0 0)
(4.95308800951924e-14 0 0)
(-2.355755223272631e-13 0 0)
(7.902497550970799e-13 0 0)
(2.493192674429748e-12 0 0)
(3.226854328776273e-12 0 0)
(2.96081525864019e-12 0 0)
(3.750167517307647e-12 0 0)
(4.753364696523955e-12 0 0)
(5.478397467560105e-12 0 0)
(5.885256119134008e-12 0 0)
(4.95679617147062e-12 0 0)
(4.56034291567976e-12 0 0)
(4.72374524603391e-12 0 0)
(3.977011651957321e-12 0 0)
(3.240718284182655e-12 0 0)
(3.148594024583659e-12 0 0)
(2.773963246503171e-12 0 0)
(2.262840719002784e-12 0 0)
(3.028713736023944e-12 0 0)
(2.919970932593009e-12 0 0)
(2.64348169022634e-12 0 0)
(2.165403669935328e-12 0 0)
(1.924644995697449e-12 0 0)
(1.462161444693809e-12 0 0)
(-4.364284594563621e-13 0 0)
(-4.659898959529657e-13 0 0)
(-2.634604270195787e-13 0 0)
(3.561092077489594e-14 0 0)
(8.579346293488105e-13 0 0)
(1.39255878722007e-12 0 0)
(2.412307872579664e-12 0 0)
(3.156485935254602e-12 0 0)
(2.794005945852231e-12 0 0)
(1.877732477274015e-12 0 0)
(2.357561738884151e-12 0 0)
(2.806103093909874e-12 0 0)
(2.567964532687078e-12 0 0)
(2.758353498988665e-12 0 0)
(3.264246519058323e-12 0 0)
(4.276103616985996e-12 0 0)
(4.298670316777446e-12 0 0)
(3.154663710388198e-12 0 0)
(2.248014222194603e-12 0 0)
(3.205191927739385e-12 0 0)
(2.874756205964234e-12 0 0)
(2.238363860632491e-12 0 0)
(2.535703383051846e-12 0 0)
(2.49405711218353e-12 0 0)
(1.691719393256715e-12 0 0)
(1.309223801462385e-14 0 0)
(-1.201337645534423e-12 0 0)
(-1.782949537845624e-12 0 0)
(-1.725569482209916e-12 0 0)
(-1.795963739997233e-12 0 0)
(-2.364444915543905e-12 0 0)
(-2.861653951375856e-12 0 0)
(-2.716468941368596e-12 0 0)
(-2.379176443583005e-12 0 0)
(-1.893290534492096e-12 0 0)
(-2.295813841218635e-12 0 0)
(-3.131203387541253e-12 0 0)
(-2.415756207845578e-12 0 0)
(-1.633391841974467e-12 0 0)
(-9.423194997713428e-13 0 0)
(4.111428715401598e-13 0 0)
(2.825103381470356e-13 0 0)
(-1.002336256479181e-12 0 0)
(-2.141196999751988e-12 0 0)
(-1.357057587164427e-12 0 0)
(-9.667384964105084e-13 0 0)
(-1.683022371626199e-12 0 0)
(-2.525352867162023e-12 0 0)
(-2.926968092455081e-12 0 0)
(-2.753972208524147e-12 0 0)
(-2.441016409860185e-12 0 0)
(-2.952996791672147e-12 0 0)
(-3.635424773586878e-12 0 0)
(-2.943469228318517e-12 0 0)
(-2.216711371304375e-12 0 0)
(-2.051564305164849e-12 0 0)
(-1.90553864154422e-12 0 0)
(-5.154972992163025e-13 0 0)
(6.441419046638995e-13 0 0)
(-2.651816031012438e-13 0 0)
(-9.579823308105385e-13 0 0)
(-1.95604482374355e-13 0 0)
(9.405825569845494e-13 0 0)
(6.093793410677168e-13 0 0)
(9.658405203751592e-13 0 0)
(2.159394791152082e-12 0 0)
(3.193825654413894e-12 0 0)
(2.89825737636383e-12 0 0)
(1.972486237407842e-12 0 0)
(1.880381766486682e-12 0 0)
(1.415254263455248e-12 0 0)
(6.694234853399498e-13 0 0)
(-2.129246373495313e-13 0 0)
(-1.277482942983497e-13 0 0)
(1.01742320830123e-13 0 0)
(2.964503266569373e-13 0 0)
(1.34725815620563e-13 0 0)
(-4.190372438387016e-13 0 0)
(4.189947132156951e-13 0 0)
(1.063101137495755e-12 0 0)
(-2.138882766649175e-13 0 0)
(-3.84297359981829e-13 0 0)
(5.910629193778005e-13 0 0)
(7.927461989242069e-13 0 0)
(2.920565487122078e-13 0 0)
(3.981326059643297e-13 0 0)
(5.632968756280836e-13 0 0)
(6.5719009240615e-13 0 0)
(2.112252434608637e-13 0 0)
(-8.536413175983168e-13 0 0)
(-1.395219397233462e-12 0 0)
(-1.143987365171502e-12 0 0)
(-9.127695557604897e-13 0 0)
(-6.91095066484216e-13 0 0)
(6.763620240510812e-13 0 0)
(1.882908743378435e-12 0 0)
(2.154107322787191e-12 0 0)
(1.217001541566252e-12 0 0)
(-1.590639038741006e-13 0 0)
(-1.325673972713524e-12 0 0)
(-1.80380154034498e-12 0 0)
(-2.912145234805385e-12 0 0)
(-3.511070147570178e-12 0 0)
(-2.049761607475069e-12 0 0)
(-1.820316905704307e-12 0 0)
(-3.251174506042802e-12 0 0)
(-3.694538100901913e-12 0 0)
(-2.968676500707673e-12 0 0)
(-3.059953201191987e-12 0 0)
(-2.57487875014397e-12 0 0)
(-2.242823955097155e-12 0 0)
(-2.160230848083124e-12 0 0)
(-1.627340728797754e-12 0 0)
(-1.598732377130294e-12 0 0)
(-1.847311151613781e-12 0 0)
(-1.036222341963542e-12 0 0)
(8.040792351611039e-13 0 0)
(5.928259108035035e-13 0 0)
(-7.823637343448017e-13 0 0)
(-4.198390366715371e-13 0 0)
(-4.172675176655966e-13 0 0)
(-9.257786221916371e-13 0 0)
(-3.624843860139093e-13 0 0)
(3.677152343160042e-13 0 0)
)
;

boundaryField
{
    inlet
    {
        type            zeroGradient;
    }
    outlet
    {
        type            characteristicPressureInletOutletVelocity;
        UName           U;
        pName           p;
        TName           T;
        phiName         phi;
        rhoName         rho;
        U               (0 0 0);
        p               101325;
        T               300;
        value           uniform (3.677152343160042e-13 0 0);
    }
    frontAndBack
    {
        type            empty;
    }
}


// ************************************************************************* //
