/*--------------------------------*- C++ -*----------------------------------*\
| =========                 |                                                 |
| \\      /  F ield         | OpenFOAM: The Open Source CFD Toolbox           |
|  \\    /   O peration     | Version:  v2012                                 |
|   \\  /    A nd           | Website:  www.openfoam.com                      |
|    \\/     M anipulation  |                                                 |
\*---------------------------------------------------------------------------*/
FoamFile
{
    version     2.0;
    format      ascii;
    class       volVectorField;
    location    "0.002";
    object      UMean;
}
// * * * * * * * * * * * * * * * * * * * * * * * * * * * * * * * * * * * * * //

dimensions      [0 1 -1 0 0 0 0];


internalField   nonuniform List<vector> 
1000
(
(-0.0001092865436348069 0 0)
(9.973895272986871e-05 0 0)
(0.0001746716168789136 0 0)
(0.0003618180219080088 0 0)
(0.0005804831516399324 0 0)
(0.0008542396758770721 0 0)
(0.001174021079765641 0 0)
(0.001530421536548219 0 0)
(0.001922180465771584 0 0)
(0.002338908753874607 0 0)
(0.002770960330682493 0 0)
(0.003203277168597392 0 0)
(0.003635731435577952 0 0)
(0.004060889856204809 0 0)
(0.004475952716212985 0 0)
(0.004868142953570227 0 0)
(0.005232731709088603 0 0)
(0.005558448085700447 0 0)
(0.005842966037475817 0 0)
(0.006077853327097499 0 0)
(0.006262447927958987 0 0)
(0.006390141946575858 0 0)
(0.006461670579505335 0 0)
(0.006472500912897177 0 0)
(0.006425287091813292 0 0)
(0.006318074233742777 0 0)
(0.006155753333311891 0 0)
(0.005938604669626165 0 0)
(0.005672432846551943 0 0)
(0.005357541155972306 0 0)
(0.004999347466596822 0 0)
(0.004602145081903169 0 0)
(0.004183140296846031 0 0)
(0.003756639863958547 0 0)
(0.003331073190847474 0 0)
(0.002906158496212507 0 0)
(0.002485371059293501 0 0)
(0.002073102343220276 0 0)
(0.001676492543161737 0 0)
(0.001303975275369237 0 0)
(0.0009647207360387284 0 0)
(0.0006669791752527249 0 0)
(0.0004174929531298312 0 0)
(0.0002210203669013802 0 0)
(8.080880719758365e-05 0 0)
(-1.095816325091604e-06 0 0)
(-2.354914063945074e-05 0 0)
(1.369167998246744e-05 0 0)
(0.0001099063642704629 0 0)
(0.0002635011481518418 0 0)
(0.0004723384585220159 0 0)
(0.0007344755886687785 0 0)
(0.001048208339034976 0 0)
(0.001410176215650625 0 0)
(0.001809894721585625 0 0)
(0.002228392601997287 0 0)
(0.002650598461198753 0 0)
(0.003072570416739184 0 0)
(0.003493714523337417 0 0)
(0.00391087380951425 0 0)
(0.004321291372230292 0 0)
(0.004717805032655242 0 0)
(0.005094163996095174 0 0)
(0.005440426831894376 0 0)
(0.005749073082110121 0 0)
(0.006010870807009665 0 0)
(0.006220775716608009 0 0)
(0.006373244682305902 0 0)
(0.006467115806445309 0 0)
(0.006500274476656975 0 0)
(0.006474140935597231 0 0)
(0.006388490583430712 0 0)
(0.006245862866022469 0 0)
(0.00604631052471106 0 0)
(0.005791752819824944 0 0)
(0.005481949638699764 0 0)
(0.005122106068373058 0 0)
(0.00472370795935283 0 0)
(0.004308367608064347 0 0)
(0.003889307324311974 0 0)
(0.003470885552873241 0 0)
(0.00305323782345738 0 0)
(0.00263852507502665 0 0)
(0.002230012914044737 0 0)
(0.001832672422024665 0 0)
(0.001453158912352321 0 0)
(0.001099425139721513 0 0)
(0.0007802098599508186 0 0)
(0.0005040786818640925 0 0)
(0.0002786215167548307 0 0)
(0.0001096485363253104 0 0)
(9.01915869463515e-07 0 0)
(-4.59953527170666e-05 0 0)
(-3.103699415194542e-05 0 0)
(4.474881123035323e-05 0 0)
(0.0001801349803690813 0 0)
(0.0003742265875810982 0 0)
(0.0006267301115481607 0 0)
(0.0009367900411369813 0 0)
(0.001299138479224377 0 0)
(0.001698327606475523 0 0)
(0.002112479999075834 0 0)
(0.002528786729292878 0 0)
(0.002944803611316267 0 0)
(0.003360104550783186 0 0)
(0.003772293393577945 0 0)
(0.00417919222363767 0 0)
(0.004575417521581002 0 0)
(0.004955844792224409 0 0)
(0.005312238774436831 0 0)
(0.005637229154621842 0 0)
(0.005921449061738596 0 0)
(0.006157857214354121 0 0)
(0.006339048491641141 0 0)
(0.006461287632935536 0 0)
(0.00652124120689403 0 0)
(0.006519172830232503 0 0)
(0.006454934309340444 0 0)
(0.00633050228743641 0 0)
(0.006145793093634946 0 0)
(0.005901747047620269 0 0)
(0.005598223209528392 0 0)
(0.005241371730518169 0 0)
(0.004845946822458856 0 0)
(0.004435011883481298 0 0)
(0.004021157026726022 0 0)
(0.003607791782255696 0 0)
(0.003195054680907257 0 0)
(0.002784626954448392 0 0)
(0.002379038695489148 0 0)
(0.001982225414591648 0 0)
(0.001599539464331143 0 0)
(0.00123770344826051 0 0)
(0.0009045421514202382 0 0)
(0.000608473749096204 0 0)
(0.0003578226481083789 0 0)
(0.000160052775866375 0 0)
(2.104015098118503e-05 0 0)
(-5.538257483001549e-05 0 0)
(-6.745195977601554e-05 0 0)
(-1.497491945109336e-05 0 0)
(0.0001014981722761094 0 0)
(0.0002815009112812819 0 0)
(0.00052483729866911 0 0)
(0.0008301320429719939 0 0)
(0.001190190577465915 0 0)
(0.001586714862284258 0 0)
(0.001996773135339795 0 0)
(0.002408570434673836 0 0)
(0.002820113529799799 0 0)
(0.003231064489341948 0 0)
(0.003639494592910145 0 0)
(0.004043622510616069 0 0)
(0.004439098584276183 0 0)
(0.004821642200870619 0 0)
(0.005184302031635319 0 0)
(0.005520434969299681 0 0)
(0.005821328065866068 0 0)
(0.006079545387579498 0 0)
(0.006286879734543257 0 0)
(0.006437770154126527 0 0)
(0.006527064687693565 0 0)
(0.006552890677868027 0 0)
(0.006513667267016417 0 0)
(0.006410107868841207 0 0)
(0.00624171213008936 0 0)
(0.006009151743185458 0 0)
(0.005712947764530016 0 0)
(0.005360471162977875 0 0)
(0.004968690111176111 0 0)
(0.004561655337433307 0 0)
(0.004151922363279965 0 0)
(0.003742575835122024 0 0)
(0.003333720596182806 0 0)
(0.002926710707957616 0 0)
(0.002523589465834877 0 0)
(0.002127576860883422 0 0)
(0.001743115941255236 0 0)
(0.00137592947012739 0 0)
(0.001032900006164154 0 0)
(0.0007217943623419672 0 0)
(0.0004507951637520603 0 0)
(0.0002279097538926869 0 0)
(6.02850757668483e-05 0 0)
(-4.638149916038248e-05 0 0)
(-8.817085763153613e-05 0 0)
(-6.280221183244204e-05 0 0)
(3.087066572085757e-05 0 0)
(0.0001935072221779468 0 0)
(0.0004253318462493367 0 0)
(0.0007243742160450186 0 0)
(0.001081394331752024 0 0)
(0.00147525898648593 0 0)
(0.001881892966121563 0 0)
(0.002290040334299876 0 0)
(0.002697975151843546 0 0)
(0.003105416929111419 0 0)
(0.003510772495456136 0 0)
(0.003912559649842188 0 0)
(0.004307156352559818 0 0)
(0.004690930383224208 0 0)
(0.005057928586273824 0 0)
(0.005402242485530799 0 0)
(0.005715958666319735 0 0)
(0.005991824340476163 0 0)
(0.006221521394216648 0 0)
(0.006398510602130598 0 0)
(0.006516316921218583 0 0)
(0.006571109314117409 0 0)
(0.006559475163427518 0 0)
(0.006480251127976593 0 0)
(0.006331728754612695 0 0)
(0.006113734158709722 0 0)
(0.005826977393567954 0 0)
(0.005479911193200732 0 0)
(0.005091764922796522 0 0)
(0.004688051511237528 0 0)
(0.004281708191539394 0 0)
(0.003875670583536556 0 0)
(0.003470022359205635 0 0)
(0.003065871482799517 0 0)
(0.00266490848661806 0 0)
(0.002269810456766539 0 0)
(0.001884332861263138 0 0)
(0.001513378369678418 0 0)
(0.001162997252806541 0 0)
(0.0008402131825430146 0 0)
(0.0005527569745981687 0 0)
(0.0003086162467832469 0 0)
(0.0001155193565949627 0 0)
(-1.963687669564572e-05 0 0)
(-9.116660354666339e-05 0 0)
(-9.471209494281073e-05 0 0)
(-2.700407393434118e-05 0 0)
(0.00011443548782279 0 0)
(0.0003310485088600091 0 0)
(0.0006209635065804239 0 0)
(0.0009733559514317875 0 0)
(0.001364257265032294 0 0)
(0.001767917004346456 0 0)
(0.002173017802959004 0 0)
(0.002577948461161281 0 0)
(0.002982461232952325 0 0)
(0.003385228801924336 0 0)
(0.003784984985394057 0 0)
(0.004178671833607872 0 0)
(0.0045631580642254 0 0)
(0.004933306551105506 0 0)
(0.005283861031330413 0 0)
(0.005607702002518996 0 0)
(0.005897964796931198 0 0)
(0.006146572806125706 0 0)
(0.006346549183989381 0 0)
(0.006490643954678776 0 0)
(0.006573539805314542 0 0)
(0.006590170482434357 0 0)
(0.006537380556734585 0 0)
(0.006411793459830319 0 0)
(0.006211758696362105 0 0)
(0.00593743573371857 0 0)
(0.005597748805150414 0 0)
(0.005213984221509154 0 0)
(0.004813633664016121 0 0)
(0.004410572461336336 0 0)
(0.004007754075950206 0 0)
(0.003605276900153003 0 0)
(0.00320412302118967 0 0)
(0.002805804947443561 0 0)
(0.00241276216073037 0 0)
(0.002028460606318075 0 0)
(0.001657537387978121 0 0)
(0.001305879551965343 0 0)
(0.0009806202558877294 0 0)
(0.0006899988459120162 0 0)
(0.000442984158462432 0 0)
(0.0002483999605022432 0 0)
(0.0001128797969559492 0 0)
(3.648346026388471e-05 0 0)
(6.744982958855355e-06 0 0)
(5.174876630443977e-07 0 0)
(1.108904964620555e-08 0 0)
(4.378406713425647e-11 0 0)
(-3.484962860460536e-13 0 0)
(-1.861810905989729e-13 0 0)
(-2.036805393124039e-13 0 0)
(-2.456728739673189e-13 0 0)
(-1.101560712155109e-13 0 0)
(-3.471309022084086e-13 0 0)
(-9.025484881422106e-13 0 0)
(-1.129427641604068e-12 0 0)
(-1.325163356971533e-12 0 0)
(-1.581053896820878e-12 0 0)
(-2.025111404855324e-12 0 0)
(-2.331659808161597e-12 0 0)
(-2.774699465226741e-12 0 0)
(-2.685038884061303e-12 0 0)
(-2.394864753982107e-12 0 0)
(-2.335333343764051e-12 0 0)
(-2.482136130843096e-12 0 0)
(-2.650081987838816e-12 0 0)
(-2.759345238041948e-12 0 0)
(-2.492547975704189e-12 0 0)
(-2.002201225360506e-12 0 0)
(-2.050965880269806e-12 0 0)
(-2.488285881960604e-12 0 0)
(-2.313502758664631e-12 0 0)
(-1.933387515619953e-12 0 0)
(-1.703451259555183e-12 0 0)
(-1.16376738423629e-12 0 0)
(-5.334189668370221e-13 0 0)
(-6.685042025907627e-14 0 0)
(5.439642185280354e-13 0 0)
(1.063834082872178e-12 0 0)
(1.118749139858826e-12 0 0)
(6.435321869308702e-13 0 0)
(7.683356797279364e-13 0 0)
(1.05622572139674e-12 0 0)
(1.568179057720383e-12 0 0)
(1.498224831331426e-12 0 0)
(1.414792925270496e-12 0 0)
(1.950925295130804e-12 0 0)
(2.402867225048878e-12 0 0)
(2.819350781326643e-12 0 0)
(2.720528996415092e-12 0 0)
(2.380519782392392e-12 0 0)
(2.492662762440808e-12 0 0)
(2.266656329579469e-12 0 0)
(1.951165844503251e-12 0 0)
(1.98228842670504e-12 0 0)
(1.920068244935292e-12 0 0)
(1.48553635778555e-12 0 0)
(1.585412684515208e-12 0 0)
(2.012839784627242e-12 0 0)
(2.386232866338066e-12 0 0)
(2.379389383092226e-12 0 0)
(1.84951754456118e-12 0 0)
(1.331588723229034e-12 0 0)
(5.751774627986107e-13 0 0)
(3.26769307238266e-13 0 0)
(4.679219107340096e-13 0 0)
(-3.199810224350817e-14 0 0)
(-2.017487623907268e-13 0 0)
(-9.150080772686643e-13 0 0)
(-9.994374057016507e-13 0 0)
(-1.141716573842938e-12 0 0)
(-1.539621648412435e-12 0 0)
(-1.19763444141815e-12 0 0)
(-1.254501892539926e-12 0 0)
(-1.253664666824515e-12 0 0)
(-1.092020513031068e-12 0 0)
(-1.022716466983448e-12 0 0)
(-6.505910860829124e-13 0 0)
(-5.147581370871253e-14 0 0)
(1.529419564746734e-13 0 0)
(1.574313537977315e-13 0 0)
(-3.013823588077382e-14 0 0)
(-5.963628443465125e-14 0 0)
(-3.674844621834053e-13 0 0)
(-5.997456155653805e-13 0 0)
(-7.04185891936532e-13 0 0)
(-8.892469025201898e-13 0 0)
(-1.044483411206856e-12 0 0)
(-1.545157047663766e-12 0 0)
(-1.597832176823018e-12 0 0)
(-1.291898823906841e-12 0 0)
(-1.133128062511541e-12 0 0)
(-1.138420573407414e-12 0 0)
(-1.18683262784387e-12 0 0)
(-8.333364548362471e-13 0 0)
(-3.119222645811314e-13 0 0)
(-9.461177168781829e-14 0 0)
(5.047641404767743e-14 0 0)
(4.715039930464057e-13 0 0)
(4.641074817202532e-13 0 0)
(-1.262820041419336e-13 0 0)
(-2.486776152669473e-13 0 0)
(-1.33143662646258e-13 0 0)
(1.811428427382434e-15 0 0)
(4.770254133590353e-14 0 0)
(1.76237796068662e-13 0 0)
(1.104987278689546e-13 0 0)
(3.220446871473574e-14 0 0)
(1.291317586612544e-13 0 0)
(2.240771828878876e-13 0 0)
(4.739060541804087e-13 0 0)
(4.023414891132141e-13 0 0)
(3.417171216799611e-13 0 0)
(5.07407386181592e-13 0 0)
(4.009901141355238e-13 0 0)
(6.887332998646416e-13 0 0)
(7.089660195682006e-13 0 0)
(-5.830100471020419e-14 0 0)
(-3.03934247209064e-13 0 0)
(-5.105369751716566e-14 0 0)
(2.24597797475447e-13 0 0)
(3.244602075771264e-13 0 0)
(3.520961246100664e-13 0 0)
(1.949033794273568e-13 0 0)
(-5.191293434527874e-14 0 0)
(-5.070270368920695e-16 0 0)
(-1.770311462118959e-13 0 0)
(1.40320334704965e-14 0 0)
(1.021171787950909e-13 0 0)
(-1.825323425920783e-13 0 0)
(2.294903821735524e-15 0 0)
(8.639801923451509e-14 0 0)
(-2.114472204687638e-14 0 0)
(-1.121245085439876e-13 0 0)
(-1.873573788350402e-13 0 0)
(-4.343131493290618e-14 0 0)
(2.278028681170851e-13 0 0)
(6.538555265290853e-14 0 0)
(-1.014592319347968e-13 0 0)
(-4.955281789310627e-13 0 0)
(-6.633826959655123e-13 0 0)
(-3.915957405824497e-13 0 0)
(-3.373987647142721e-13 0 0)
(-1.749125474476577e-13 0 0)
(-7.36548720318212e-14 0 0)
(2.188370215678457e-13 0 0)
(3.154965822391616e-13 0 0)
(3.736263167885354e-13 0 0)
(1.342047962050302e-13 0 0)
(-2.76161234686717e-13 0 0)
(1.764615503069108e-13 0 0)
(3.552013374069417e-13 0 0)
(-2.180747886661052e-13 0 0)
(-3.363816860856501e-13 0 0)
(-1.046153699601644e-13 0 0)
(-3.167367782603948e-13 0 0)
(-6.870107774477354e-13 0 0)
(-6.035281756454309e-13 0 0)
(-2.581067371385156e-13 0 0)
(-8.975590837690476e-14 0 0)
(5.997011147553901e-14 0 0)
(-2.715573207105372e-14 0 0)
(-9.738493318069297e-14 0 0)
(-2.006469342106736e-13 0 0)
(2.100445875032289e-13 0 0)
(3.840457550618736e-13 0 0)
(4.424124648127486e-13 0 0)
(6.152391511758574e-13 0 0)
(1.241804669217537e-12 0 0)
(1.552423500413289e-12 0 0)
(1.584937081085216e-12 0 0)
(1.728411519304222e-12 0 0)
(1.40148034967275e-12 0 0)
(1.317801824600811e-12 0 0)
(1.677525580347113e-12 0 0)
(2.075331575283688e-12 0 0)
(2.108221364959253e-12 0 0)
(2.128106285015522e-12 0 0)
(2.405216411926202e-12 0 0)
(2.531381416537244e-12 0 0)
(2.795960248903917e-12 0 0)
(2.46601518276486e-12 0 0)
(2.178474714100559e-12 0 0)
(2.286879355319777e-12 0 0)
(2.468854533303511e-12 0 0)
(2.574777114210274e-12 0 0)
(2.540017829582019e-12 0 0)
(2.378716276330161e-12 0 0)
(2.330791438613907e-12 0 0)
(2.264480592928935e-12 0 0)
(2.218824578611523e-12 0 0)
(2.179582292708741e-12 0 0)
(2.285423629986615e-12 0 0)
(2.66710810885842e-12 0 0)
(2.667232314745448e-12 0 0)
(2.619977538742826e-12 0 0)
(2.404927118391804e-12 0 0)
(2.387725557904428e-12 0 0)
(2.731895869048151e-12 0 0)
(2.540683840793339e-12 0 0)
(2.369878579013446e-12 0 0)
(2.279606763513839e-12 0 0)
(1.860119914248811e-12 0 0)
(1.827895510851766e-12 0 0)
(2.144588061026867e-12 0 0)
(2.237336302144416e-12 0 0)
(2.404630651258613e-12 0 0)
(2.405428625921263e-12 0 0)
(1.948021430170585e-12 0 0)
(1.626350296069765e-12 0 0)
(1.436297264694144e-12 0 0)
(1.229156738223348e-12 0 0)
(7.200090051384914e-13 0 0)
(1.829342050364305e-14 0 0)
(-3.49626942080289e-14 0 0)
(-7.313113735630101e-14 0 0)
(-5.143470206487206e-13 0 0)
(-3.905515484104066e-13 0 0)
(-2.499396658096846e-13 0 0)
(-2.363254581118816e-13 0 0)
(-1.010308748054774e-13 0 0)
(-2.149514714570285e-13 0 0)
(-3.219391264596997e-13 0 0)
(-4.596973497351565e-13 0 0)
(-5.142353326833467e-13 0 0)
(-2.330467510944567e-13 0 0)
(-2.615226907990623e-14 0 0)
(1.930776334531305e-14 0 0)
(-3.418841096843503e-13 0 0)
(-6.662626828011557e-13 0 0)
(-6.084783310108081e-13 0 0)
(-3.614919833974003e-13 0 0)
(-2.530424224474116e-13 0 0)
(-3.511496484671992e-13 0 0)
(-3.674973942351114e-13 0 0)
(-4.327969945248348e-13 0 0)
(-6.273424135569803e-13 0 0)
(-9.280771186660795e-13 0 0)
(-1.124857672137613e-12 0 0)
(-1.650986159237029e-12 0 0)
(-2.071231490953944e-12 0 0)
(-1.776890609820422e-12 0 0)
(-1.497890206339094e-12 0 0)
(-1.701728182273351e-12 0 0)
(-2.198079913797497e-12 0 0)
(-2.547424136511804e-12 0 0)
(-2.748492910188033e-12 0 0)
(-3.060184546556638e-12 0 0)
(-3.210923592621598e-12 0 0)
(-3.593073060890961e-12 0 0)
(-4.112878350633473e-12 0 0)
(-4.101045103478773e-12 0 0)
(-4.566440690319931e-12 0 0)
(-4.985599096032698e-12 0 0)
(-4.312867325039282e-12 0 0)
(-4.146570421122017e-12 0 0)
(-4.66307062348098e-12 0 0)
(-4.942540651062478e-12 0 0)
(-5.163168800722182e-12 0 0)
(-4.747962162516193e-12 0 0)
(-4.669092627104393e-12 0 0)
(-4.494660775687581e-12 0 0)
(-3.763445815059533e-12 0 0)
(-3.730662234354711e-12 0 0)
(-3.667030554468313e-12 0 0)
(-3.507286509185042e-12 0 0)
(-3.780641517760894e-12 0 0)
(-3.870111448354862e-12 0 0)
(-3.84248237081459e-12 0 0)
(-3.785446687207052e-12 0 0)
(-3.651290094775079e-12 0 0)
(-3.18153069098134e-12 0 0)
(-2.825787522301099e-12 0 0)
(-2.874097366545369e-12 0 0)
(-2.78496592041519e-12 0 0)
(-2.394810464827455e-12 0 0)
(-1.617462454734925e-12 0 0)
(-1.431234688120994e-12 0 0)
(-1.101768142059322e-12 0 0)
(-5.60563908024807e-13 0 0)
(-1.570083313096168e-13 0 0)
(-7.234311003070675e-14 0 0)
(-6.788258516608143e-14 0 0)
(2.150972612028552e-13 0 0)
(6.155991695308208e-13 0 0)
(5.845758088171989e-13 0 0)
(2.44562471082682e-13 0 0)
(6.833699938709783e-13 0 0)
(1.392425257856022e-12 0 0)
(1.858399059855786e-12 0 0)
(1.845532086680687e-12 0 0)
(1.569537986965775e-12 0 0)
(1.939009838920296e-12 0 0)
(2.137188017246741e-12 0 0)
(1.935527408225936e-12 0 0)
(1.893339210077537e-12 0 0)
(1.737453154967893e-12 0 0)
(1.458560989734009e-12 0 0)
(1.232931782768062e-12 0 0)
(9.569527330189294e-13 0 0)
(5.015678686894475e-13 0 0)
(1.988881745542838e-13 0 0)
(4.201956437740351e-13 0 0)
(7.936313913167488e-13 0 0)
(1.056624519116618e-12 0 0)
(8.395471926868291e-13 0 0)
(4.083307920609715e-13 0 0)
(3.747591737750387e-13 0 0)
(4.280267066956994e-13 0 0)
(3.38768176836421e-13 0 0)
(9.050901571487576e-15 0 0)
(-1.338215465190226e-13 0 0)
(3.213750297292855e-13 0 0)
(2.491391703267722e-13 0 0)
(-3.236014080094836e-14 0 0)
(1.139741155009634e-13 0 0)
(1.623071408213302e-13 0 0)
(4.281206822813984e-13 0 0)
(2.798399004825156e-13 0 0)
(2.45573948811976e-13 0 0)
(4.925207093647907e-13 0 0)
(4.776878882907251e-13 0 0)
(8.146488712472133e-13 0 0)
(9.207705583926127e-13 0 0)
(9.532614354661516e-13 0 0)
(1.022729120030219e-12 0 0)
(1.101832870380304e-12 0 0)
(1.198045868785143e-12 0 0)
(1.322294183082654e-12 0 0)
(1.961907738658565e-12 0 0)
(1.954193074671176e-12 0 0)
(1.405519919925236e-12 0 0)
(1.245957651852351e-12 0 0)
(1.403892698008105e-12 0 0)
(1.557426576260258e-12 0 0)
(1.372713528200292e-12 0 0)
(1.502204945011386e-12 0 0)
(1.683042319394447e-12 0 0)
(1.539819530788102e-12 0 0)
(1.421255590375589e-12 0 0)
(1.214000109640859e-12 0 0)
(8.714709307542105e-13 0 0)
(6.823866866735575e-13 0 0)
(2.470349627908954e-13 0 0)
(5.101575014897247e-14 0 0)
(-2.182115166921236e-15 0 0)
(-1.713615979464646e-13 0 0)
(-1.810785393650522e-13 0 0)
(-5.293560952645063e-13 0 0)
(-3.436069868531659e-13 0 0)
(-1.284963471905156e-13 0 0)
(-6.820298088182651e-14 0 0)
(1.350060256858728e-13 0 0)
(4.509166926455415e-13 0 0)
(8.139893718648186e-13 0 0)
(1.20797825549999e-12 0 0)
(1.309408535087656e-12 0 0)
(1.205458439963709e-12 0 0)
(1.176851567855966e-12 0 0)
(4.812752888802025e-13 0 0)
(-2.042614706019947e-13 0 0)
(-5.743167906426316e-13 0 0)
(-8.564885137233739e-13 0 0)
(-7.885453145372343e-13 0 0)
(-5.133926386796926e-13 0 0)
(-2.741184143831991e-13 0 0)
(-2.315576707657217e-13 0 0)
(-9.979295262867597e-14 0 0)
(-8.807913787232211e-14 0 0)
(6.464219086951676e-14 0 0)
(4.447802189081146e-13 0 0)
(5.754486008048564e-13 0 0)
(6.449848072585184e-13 0 0)
(6.600379833566595e-13 0 0)
(5.957440443644971e-13 0 0)
(2.66558730749653e-13 0 0)
(8.231839938967974e-16 0 0)
(8.160874726905575e-14 0 0)
(1.784105407681997e-13 0 0)
(2.324406999955741e-13 0 0)
(3.650624615035044e-13 0 0)
(3.72533441903335e-13 0 0)
(4.890203676252162e-13 0 0)
(7.026027805621002e-13 0 0)
(7.417859433207849e-13 0 0)
(6.996305028384866e-13 0 0)
(5.408809991288337e-13 0 0)
(5.804385117689161e-13 0 0)
(8.499392083187893e-13 0 0)
(5.469982520384183e-13 0 0)
(5.105122568090907e-13 0 0)
(8.016951201073647e-13 0 0)
(7.45399558468391e-13 0 0)
(5.330740748314657e-13 0 0)
(3.536906826501205e-13 0 0)
(2.692802339548088e-14 0 0)
(3.529810570386625e-14 0 0)
(9.278242530940681e-14 0 0)
(-1.835149864034529e-13 0 0)
(2.203226701000034e-15 0 0)
(2.989718840034664e-13 0 0)
(6.191495972726429e-13 0 0)
(9.581685460565456e-13 0 0)
(1.234715679230918e-12 0 0)
(9.268464010852266e-13 0 0)
(7.069923475232442e-13 0 0)
(5.601059552841728e-13 0 0)
(4.399131562675162e-13 0 0)
(1.778349682402487e-13 0 0)
(-4.351223661255001e-13 0 0)
(-1.002075942069328e-12 0 0)
(-1.44937505211369e-12 0 0)
(-1.243371132118883e-12 0 0)
(-8.61270912369486e-13 0 0)
(-6.30934456898751e-13 0 0)
(-4.685027379307531e-13 0 0)
(-4.747307345068361e-13 0 0)
(-4.840103243266652e-13 0 0)
(-4.321756358021868e-13 0 0)
(-2.086972033062323e-13 0 0)
(-2.996264943545697e-13 0 0)
(-4.013234256030744e-13 0 0)
(-9.13159479439072e-14 0 0)
(-4.046106232487984e-13 0 0)
(-6.419202800395685e-13 0 0)
(-6.62316023486197e-13 0 0)
(-8.840497961634907e-13 0 0)
(-7.671983142954774e-13 0 0)
(-1.013299749847735e-12 0 0)
(-1.382884748960506e-12 0 0)
(-1.26095688285641e-12 0 0)
(-1.465879474320449e-12 0 0)
(-1.999752881661633e-12 0 0)
(-2.206723590191699e-12 0 0)
(-2.078546848146976e-12 0 0)
(-1.622735374272881e-12 0 0)
(-1.318851358810016e-12 0 0)
(-9.37766740145563e-13 0 0)
(-6.8143930429951e-13 0 0)
(-1.200280574534798e-12 0 0)
(-1.564497040618335e-12 0 0)
(-1.879371765632101e-12 0 0)
(-1.87833469092189e-12 0 0)
(-1.684520492977765e-12 0 0)
(-1.806254508189571e-12 0 0)
(-1.977225035343743e-12 0 0)
(-1.786972631705734e-12 0 0)
(-1.315819720013721e-12 0 0)
(-1.138281729677292e-12 0 0)
(-1.28604190577856e-12 0 0)
(-1.340512016157412e-12 0 0)
(-7.525457753646719e-13 0 0)
(-6.200296682459619e-13 0 0)
(-3.844304047347761e-13 0 0)
(-1.883120446581657e-13 0 0)
(-1.435830199549255e-13 0 0)
(3.401859223728743e-14 0 0)
(-3.083173209349808e-15 0 0)
(-2.800509930499861e-13 0 0)
(-4.791583576969693e-13 0 0)
(8.525643226805165e-14 0 0)
(6.325484090625298e-13 0 0)
(8.844656184252216e-13 0 0)
(9.373149767903052e-13 0 0)
(1.036045069018391e-12 0 0)
(1.176515629559942e-12 0 0)
(1.571535476970095e-12 0 0)
(2.103373923979728e-12 0 0)
(2.498708808303673e-12 0 0)
(2.773530701454663e-12 0 0)
(2.757042074284322e-12 0 0)
(2.457015146975489e-12 0 0)
(2.45117056423511e-12 0 0)
(2.442426017273405e-12 0 0)
(2.667986665318089e-12 0 0)
(2.718289327104762e-12 0 0)
(2.413051696892067e-12 0 0)
(1.984170592055588e-12 0 0)
(1.713353282959551e-12 0 0)
(1.825684644941321e-12 0 0)
(1.58217328704086e-12 0 0)
(1.161713244996239e-12 0 0)
(9.949835687580205e-13 0 0)
(8.396667578491746e-13 0 0)
(7.010738923595003e-13 0 0)
(7.737224583152164e-13 0 0)
(3.482519871758605e-13 0 0)
(-1.801233684351042e-13 0 0)
(-8.037305783470197e-13 0 0)
(-1.258749811638089e-12 0 0)
(-1.641107766235671e-12 0 0)
(-2.102766878642512e-12 0 0)
(-2.299968797854396e-12 0 0)
(-2.335783833799459e-12 0 0)
(-2.501130770414488e-12 0 0)
(-2.605934429497832e-12 0 0)
(-2.639180075460423e-12 0 0)
(-2.632614251417971e-12 0 0)
(-2.606609191054379e-12 0 0)
(-2.584774419417612e-12 0 0)
(-2.448009947597324e-12 0 0)
(-1.877232143150541e-12 0 0)
(-1.434199620598453e-12 0 0)
(-1.410597458486068e-12 0 0)
(-1.403710250289013e-12 0 0)
(-1.201804916588966e-12 0 0)
(-6.319604099833555e-13 0 0)
(-4.064141467306943e-13 0 0)
(-1.935501133382136e-13 0 0)
(-6.816521416131489e-14 0 0)
(9.004556802632183e-14 0 0)
(2.373446382220386e-14 0 0)
(4.559813342521361e-14 0 0)
(-1.695926559958938e-13 0 0)
(-9.431267915684007e-14 0 0)
(1.76392377500588e-13 0 0)
(9.804373208585971e-14 0 0)
(-8.964499123674004e-14 0 0)
(-5.704590951902737e-13 0 0)
(-9.203512274923381e-13 0 0)
(-9.561220546456543e-13 0 0)
(-2.827238150758097e-13 0 0)
(1.917024995434282e-13 0 0)
(6.902491215471151e-14 0 0)
(-9.616001131527069e-14 0 0)
(-2.248382820704594e-13 0 0)
(-2.163232804939265e-13 0 0)
(-5.323135614911814e-13 0 0)
(-7.014738071259314e-13 0 0)
(-7.165447813599713e-13 0 0)
(-8.044250090266239e-13 0 0)
(-9.209622226173335e-13 0 0)
(-8.333516873363821e-13 0 0)
(-5.33073116436786e-13 0 0)
(-2.922777838884938e-13 0 0)
(-6.972694082862584e-14 0 0)
(2.00304766659506e-13 0 0)
(6.284890306780601e-13 0 0)
(7.816331944968565e-13 0 0)
(9.240752943774784e-13 0 0)
(1.270407586202434e-12 0 0)
(1.547728297059456e-12 0 0)
(1.523164033076919e-12 0 0)
(1.319539314834581e-12 0 0)
(1.290575970583621e-12 0 0)
(1.220564974439666e-12 0 0)
(1.48825208760522e-12 0 0)
(1.719029678211042e-12 0 0)
(1.672879322019733e-12 0 0)
(1.466638759206255e-12 0 0)
(1.128251943530027e-12 0 0)
(7.979813933754819e-13 0 0)
(2.892074981547805e-13 0 0)
(-1.798514210542546e-14 0 0)
(-2.735273175446294e-13 0 0)
(-4.595822195183004e-13 0 0)
(-4.376773477502242e-13 0 0)
(-7.796019934234552e-13 0 0)
(-1.249261465139143e-12 0 0)
(-1.584162090279903e-12 0 0)
(-1.780180406944304e-12 0 0)
(-1.883443912524065e-12 0 0)
(-1.782543839621927e-12 0 0)
(-1.54489476517123e-12 0 0)
(-1.358568692995119e-12 0 0)
(-1.521592528917278e-12 0 0)
(-1.460362739847678e-12 0 0)
(-1.182520245012106e-12 0 0)
(-1.212868943640835e-12 0 0)
(-1.020911705686066e-12 0 0)
(-6.908457173991001e-13 0 0)
(-4.32677609778003e-13 0 0)
(-2.192433363251636e-13 0 0)
(2.200602433583137e-13 0 0)
(8.043779431946416e-13 0 0)
(1.269192219231999e-12 0 0)
(1.129080992126391e-12 0 0)
(1.027263652961301e-12 0 0)
(1.188703166335052e-12 0 0)
(8.183765515830358e-13 0 0)
(3.658922081710491e-13 0 0)
(2.585904204059526e-13 0 0)
(3.646297406241368e-13 0 0)
(5.82940839923706e-14 0 0)
(-2.764360344221209e-14 0 0)
(4.374305429572339e-13 0 0)
(1.987376419696914e-13 0 0)
(1.457769808877717e-13 0 0)
(5.436235916713872e-13 0 0)
(8.400116027475464e-13 0 0)
(9.073866717031954e-13 0 0)
(9.202891317390075e-13 0 0)
(9.703216566402511e-13 0 0)
(1.096473831280522e-12 0 0)
(1.212489817960403e-12 0 0)
(1.237664943180753e-12 0 0)
(1.247527386783236e-12 0 0)
(1.043156303349376e-12 0 0)
(1.230913175860263e-12 0 0)
(1.544356096791255e-12 0 0)
(1.74544250637095e-12 0 0)
(1.990007762254931e-12 0 0)
(2.0030396891509e-12 0 0)
(1.884916461939906e-12 0 0)
(1.44424727908687e-12 0 0)
(1.40561689623489e-12 0 0)
(1.479297152768792e-12 0 0)
(1.640508137802127e-12 0 0)
(1.432483592542964e-12 0 0)
(7.528340015738149e-13 0 0)
(5.133459113770274e-13 0 0)
(5.955631284394986e-13 0 0)
(7.994173664984801e-13 0 0)
(6.927351087803885e-13 0 0)
(7.442286087126801e-13 0 0)
(7.201949041004127e-13 0 0)
(4.385550121243487e-13 0 0)
(5.080976162613652e-13 0 0)
(4.949841921694804e-13 0 0)
(2.88924727054095e-13 0 0)
(1.396280355610401e-14 0 0)
(-7.796747742199252e-15 0 0)
(-2.301203522844288e-13 0 0)
(-8.080359836749995e-13 0 0)
(-1.364914693183307e-12 0 0)
(-1.929379841385039e-12 0 0)
(-2.060768674991511e-12 0 0)
(-1.981254238789171e-12 0 0)
(-1.91239329169061e-12 0 0)
(-1.999627234430552e-12 0 0)
(-1.900640963196022e-12 0 0)
(-1.867257157447229e-12 0 0)
(-2.01179366162938e-12 0 0)
(-2.046590480293557e-12 0 0)
(-1.799169250084952e-12 0 0)
(-1.324939767331689e-12 0 0)
(-9.067159079796557e-13 0 0)
(-9.136047223553525e-13 0 0)
(-9.745619265000954e-13 0 0)
(-8.059392188714401e-13 0 0)
(-6.517020783822818e-13 0 0)
(-5.136003107555705e-13 0 0)
(-3.376115329680403e-13 0 0)
(-1.376999786076231e-13 0 0)
(2.007690814346421e-13 0 0)
(3.940635721759681e-13 0 0)
(7.452025367865886e-13 0 0)
(9.70415457422388e-13 0 0)
(1.093816529473778e-12 0 0)
(1.125438356540975e-12 0 0)
(1.257897046357952e-12 0 0)
(1.505038010614974e-12 0 0)
(1.641825269930906e-12 0 0)
(1.53142568942285e-12 0 0)
(1.059054431178595e-12 0 0)
(8.775018454740584e-13 0 0)
(8.230937878395444e-13 0 0)
(6.608817498767582e-13 0 0)
(3.15357683006031e-13 0 0)
(-1.546103595416293e-15 0 0)
(2.116388353038545e-14 0 0)
(-2.364479379945046e-13 0 0)
(-4.071808713229489e-13 0 0)
(-3.381513654771242e-13 0 0)
(-2.764710170928307e-13 0 0)
(-7.986231389980679e-13 0 0)
(-1.077777236678324e-12 0 0)
(-1.01130816667594e-12 0 0)
(-8.621178594370161e-13 0 0)
(-1.304162341214198e-12 0 0)
(-1.555328886977603e-12 0 0)
(-1.318839185090356e-12 0 0)
(-1.159701653633615e-12 0 0)
(-1.024824487351622e-12 0 0)
(-1.110186219003247e-12 0 0)
(-8.852292773539799e-13 0 0)
(-6.132519286841569e-13 0 0)
(-3.138649861068047e-13 0 0)
(1.080828293250731e-14 0 0)
(7.069299566006128e-13 0 0)
(1.107874598913745e-12 0 0)
(1.068300768734092e-12 0 0)
(9.858327691856643e-13 0 0)
(7.826961608417239e-13 0 0)
(1.230783925567802e-12 0 0)
(1.542388739739699e-12 0 0)
(1.409957864234758e-12 0 0)
(1.504426032859605e-12 0 0)
(1.886679836030316e-12 0 0)
(2.068676266372057e-12 0 0)
(2.029083083732942e-12 0 0)
(2.12518520444646e-12 0 0)
(1.911810156067418e-12 0 0)
(1.488630502725436e-12 0 0)
(7.16984549723222e-13 0 0)
(-1.753075536760934e-14 0 0)
(-3.341834076928433e-13 0 0)
(-8.749436843773423e-13 0 0)
(-1.409436900835511e-12 0 0)
(-1.931428673001042e-12 0 0)
(-2.374696017078588e-12 0 0)
(-2.48527824637523e-12 0 0)
(-2.0739499878953e-12 0 0)
(-1.917267343830799e-12 0 0)
(-1.742974708849406e-12 0 0)
(-1.116736605451101e-12 0 0)
(-7.925224973054226e-13 0 0)
(-6.873645244607015e-13 0 0)
(-9.971275950262026e-13 0 0)
(-1.074465549832764e-12 0 0)
(-8.81818624423206e-13 0 0)
(-5.220539694837215e-13 0 0)
(-2.425219757298153e-13 0 0)
(-2.535812215267461e-13 0 0)
(-4.951423393932304e-13 0 0)
(-4.832545549123571e-13 0 0)
(8.300615581457028e-14 0 0)
(2.918257499227357e-13 0 0)
(3.599034905245463e-13 0 0)
(1.668665232512891e-13 0 0)
(1.83744759317628e-14 0 0)
(1.680962729087393e-14 0 0)
(-2.632536315034419e-13 0 0)
(-4.223214389156533e-13 0 0)
(-6.978106711446613e-13 0 0)
(-9.284707234871287e-13 0 0)
)
;

boundaryField
{
    inlet
    {
        type            calculated;
        value           uniform (-0.0001092865436348069 0 0);
    }
    outlet
    {
        type            calculated;
        value           uniform (-9.284707234871287e-13 0 0);
    }
    frontAndBack
    {
        type            empty;
    }
}


// ************************************************************************* //
