/*--------------------------------*- C++ -*----------------------------------*\
| =========                 |                                                 |
| \\      /  F ield         | OpenFOAM: The Open Source CFD Toolbox           |
|  \\    /   O peration     | Version:  v2012                                 |
|   \\  /    A nd           | Website:  www.openfoam.com                      |
|    \\/     M anipulation  |                                                 |
\*---------------------------------------------------------------------------*/
FoamFile
{
    version     2.0;
    format      ascii;
    class       volScalarField;
    location    "0.017";
    object      p;
}
// * * * * * * * * * * * * * * * * * * * * * * * * * * * * * * * * * * * * * //

dimensions      [1 -1 -2 0 0 0 0];


internalField   nonuniform List<scalar> 
1000
(
101303.0796356284
101304.3147581485
101298.9367400664
101286.9068776515
101282.7379760932
101275.1437587189
101267.6845770067
101263.9276792764
101261.5496611756
101257.1800946347
101256.4089190074
101255.8116888828
101256.3385400704
101258.6591002727
101261.5287687408
101266.7330926496
101271.4522053019
101278.3924842921
101286.7856949526
101294.0257705616
101303.6119877814
101312.7258773462
101322.103021756
101332.2727617149
101341.3542893296
101351.1741455324
101359.7475513988
101367.5263462975
101374.6223937867
101381.1218999936
101385.3407842977
101388.1107355147
101390.8354249514
101391.6490136653
101391.5264692137
101390.3790532985
101387.5267619321
101384.9687543208
101380.0172285148
101373.7500238069
101368.4144397199
101359.7797406711
101351.0231884271
101343.8569320798
101334.1050851954
101324.7090227584
101316.9916193025
101307.58081229
101299.0593988579
101291.317982873
101283.1281566396
101275.8690785565
101269.3912917292
101264.3116013382
101260.9328494558
101257.7470772675
101256.8519364891
101255.971129835
101256.7541155215
101257.8930269789
101260.6497156072
101262.8896760119
101268.5994090816
101274.5220610503
101280.692071695
101289.938696989
101298.1632791173
101306.8867193069
101317.3275128705
101327.0058415404
101336.1607073846
101345.6910970387
101354.5505084244
101362.6575816433
101370.1952055808
101377.4938773352
101382.6430196919
101385.641486874
101388.5107221593
101389.7573055001
101389.4366419247
101388.2418694405
101386.8065567124
101384.4424907575
101379.6236579
101375.3670850381
101370.0268616298
101361.6147482202
101354.6964192136
101346.5438812641
101336.4306023692
101327.6009013963
101318.7786965685
101308.8856732289
101300.4573941909
101292.4363658065
101284.1921722008
101275.9858199076
101270.9638521835
101263.5111277211
101260.3843871384
101257.0196511828
101255.4229881558
101254.4485105795
101254.4358945739
101255.5659783897
101257.7803052822
101260.0146398207
101264.0818456927
101269.4847217063
101274.7412638098
101283.158061097
101290.8034146168
101299.2102178822
101309.6052659274
101318.9124988568
101328.9663276277
101339.0304574228
101347.9014702866
101357.0215049177
101365.2864903914
101372.7186345713
101378.3114143686
101382.2473106051
101385.5562324026
101386.8313279499
101387.5882847036
101386.9290156721
101385.0427158242
101383.3534188128
101379.9884497213
101374.655904091
101370.4236830615
101363.5729054335
101355.5374825404
101348.434591289
101339.0715784954
101329.8335957134
101320.9328532761
101311.025896114
101302.0794067496
101293.1103071077
101284.6772624443
101277.2640213256
101270.4965024356
101263.8913164762
101259.8432694217
101257.567537483
101254.6138302527
101253.4870133474
101253.887318445
101253.7939709614
101255.6802379814
101257.9523194358
101261.1586973967
101266.255080453
101271.2608817485
101277.8406133778
101285.9599390049
101293.5358045602
101302.9935794689
101312.7905379136
101322.6099515413
101332.6608532485
101342.3460594156
101351.6170735212
101360.6125352809
101368.2110861144
101375.5962456866
101379.2007457718
101383.3880984035
101384.9550591924
101385.8880678872
101385.7966888628
101384.7612286864
101382.9766840958
101379.7925153524
101375.516513117
101371.1909037139
101364.9232517129
101357.856008189
101350.4556847718
101341.7532628841
101333.0372173755
101323.5465321115
101313.95201277
101304.9043166
101295.165261452
101286.4102386576
101278.4053927124
101270.954086689
101263.4143599884
101259.0729584787
101255.9681074114
101253.4207998419
101251.8601876361
101251.6908815573
101251.6864686071
101253.4796752302
101254.8922137324
101257.2425861964
101262.1029260819
101266.310809216
101272.6144031984
101280.1641234105
101286.9953951731
101295.8262802818
101305.6243495054
101315.2276507472
101324.8576923757
101334.8112438969
101345.180305236
101353.3629829476
101362.348726308
101370.7904982889
101375.4988267938
101379.9709266547
101382.2630059083
101383.9457450029
101384.1163596959
101383.3019649165
101381.9796598435
101379.0004078168
101374.9868894857
101371.4377606369
101365.4858188428
101358.3391662299
101352.0360746762
101343.6493178589
101334.3872267461
101325.559705609
101316.3872634404
101306.6536862449
101296.9316291086
101288.4028362191
101279.6473789289
101270.9932047696
101263.8270321933
101258.3269305919
101254.4936273605
101251.7632110042
101250.5743043778
101249.2906540267
101249.5313373284
101250.6732202915
101252.0222996005
101253.7434243359
101258.0740473307
101262.2421249771
101266.7595885888
101274.2263218906
101281.1538498782
101288.4420774773
101298.8337003729
101307.6743648911
101316.8833953731
101327.956711698
101337.0260356922
101346.6240920351
101356.009053717
101364.2575395773
101371.1924051381
101375.5694248872
101378.3410304962
101381.1442011791
101381.2952766399
101380.834801611
101379.6182630399
101377.8548372516
101373.7425155055
101370.0976938519
101365.2013608347
101358.0411656582
101351.8127544006
101343.9635914357
101335.1837053476
101326.5334009928
101317.3455355914
101307.719657283
101298.337357556
101288.6738382362
101279.9301593247
101271.4384579154
101264.1033767797
101256.5954015902
101252.6260752092
101249.9115832151
101247.6767671163
101246.4662391611
101246.3509956864
101246.8190805503
101248.4493677571
101250.2529356961
101253.1126001083
101257.6538599667
101262.1620696227
101268.4219167353
101275.3805844085
101282.4706141792
101291.5067513048
101300.4042094219
101310.0332884749
101319.9887013368
101329.7787433831
101339.6449447112
101348.7588636239
101357.1917398426
101365.7173488472
101370.4930753534
101374.3826115847
101377.2151443121
101378.1383129875
101378.2982809071
101377.1685641897
101375.5166506698
101372.6891425125
101368.503834437
101364.2817249754
101358.3890424896
101351.2737540631
101344.4320964897
101335.934951591
101327.3978151094
101318.2703960092
101308.8994410342
101299.6517741419
101290.0811741741
101281.3304833059
101272.7090032393
101264.4481776129
101257.6052460306
101251.461246377
101249.1196637463
101246.43683763
101245.1543010613
101244.6860482626
101244.8726498856
101246.8780076768
101248.2665819089
101250.549562057
101255.1097311022
101258.7455305948
101264.6072399606
101271.8149078384
101277.3315014616
101286.4792530582
101295.7493748724
101303.7670685425
101314.2725036279
101324.5147366019
101333.5720691944
101343.5010296958
101353.716961442
101360.9104799746
101369.0632893569
101373.568633518
101377.5246924748
101379.551488286
101380.7043644182
101380.0213747302
101378.7870984819
101377.0318012514
101373.2537217226
101369.3534131378
101364.8816767638
101357.9724706355
101351.398917608
101344.237889859
101335.6447983667
101327.2992390887
101318.7182096635
101309.3621607481
101300.4484734731
101291.3218472375
101282.8118200333
101274.647236434
101267.3097076662
101260.3758790425
101255.3714633499
101252.5749149511
101250.4304339543
101248.5041040104
101248.2856561639
101248.7525115488
101249.7932411301
101251.4681006536
101253.4188710144
101256.5723633225
101260.7910299149
101265.1576369758
101270.9821888322
101277.0108608203
101283.4618797116
101291.6034297064
101299.2219367865
101307.0026324549
101316.0175817327
101324.1724180575
101331.9501997065
101340.1820743158
101347.4197507183
101353.5059346688
101358.2345487524
101361.2877949334
101363.8597125217
101364.9407708427
101364.6835086214
101363.6617853252
101362.264001097
101359.3976613276
101355.5771764452
101351.8762228483
101346.5030379634
101340.1918945531
101333.9640648938
101326.4854145756
101318.807068499
101310.8737197689
101302.638197018
101294.5483381063
101286.2855660839
101278.8081738864
101271.39315251
101264.3468706015
101258.3883560142
101253.6605529614
101250.7106766695
101249.1482976522
101247.2338108336
101247.1319974249
101247.8909808416
101249.0401597652
101250.7750485436
101252.9997152316
101256.6103301148
101260.8884584009
101265.3298460754
101271.3849621699
101277.8048022762
101284.2430452369
101292.1841331023
101300.5438279694
101308.1878752295
101316.4453382116
101325.6607343036
101332.5954272508
101340.4881721099
101347.9818991356
101353.3297624495
101357.1306877625
101361.1842650902
101362.1364101098
101363.0092058486
101362.6089613589
101361.024375784
101358.6927132045
101355.6151786792
101350.7475056418
101346.0590741132
101340.3813977999
101332.9951587643
101326.0331880889
101318.5104502048
101309.8198154197
101301.5458677256
101293.0214207907
101284.8117262908
101276.9016390718
101269.1024149565
101261.8283771575
101255.804601737
101249.7714109949
101247.5288019103
101243.991373046
101242.9749933433
101242.2837337986
101242.3465005974
101243.0874128766
101245.2315417927
101246.8746739303
101249.9294581514
101254.4001423262
101258.1323480701
101263.6685346749
101270.090573539
101276.4245950151
101283.7143590359
101291.3395640614
101299.124812659
101307.6200222224
101315.6180980963
101323.5398339036
101331.8363003354
101338.5903991439
101344.9448857852
101349.3455373493
101353.4218259496
101355.3305160318
101356.5967092177
101356.7000180501
101355.7303956287
101353.8660309259
101350.7124080531
101347.2515529384
101342.551971705
101336.9078020052
101331.29006113
101323.7177689174
101316.0569094147
101308.6679112738
101300.0646067636
101291.5213780217
101283.6716275384
101275.4016991444
101267.1877082122
101260.8895688982
101253.6771057326
101247.8316353999
101243.6756104855
101240.7876649469
101238.9403573302
101237.5225206073
101237.4245342729
101238.3935111565
101239.7737546893
101241.5324694811
101244.5358609093
101248.5614952882
101252.4291100083
101257.3715070032
101264.0134408363
101269.8372546781
101276.4516089729
101284.1409529506
101291.9036753229
101299.6834428172
101307.6128172092
101315.7928806555
101323.1493743513
101330.2459768883
101336.9436880801
101342.1670883868
101345.8204636614
101349.2331399595
101350.7053156631
101350.9960610269
101350.9253833593
101349.1408686928
101346.3890731569
101344.0801771607
101338.8415573413
101333.6242370475
101328.9091490675
101321.5551847514
101314.4070214877
101307.7777100455
101299.3436417453
101290.9774040546
101283.1327437368
101274.9559364407
101267.3717104817
101260.1811670527
101252.6321073141
101247.4795476186
101241.8769316056
101239.4408936567
101236.4663844679
101235.5350928243
101235.1139600641
101235.5431463595
101236.5314631887
101239.1065261925
101241.0618222356
101244.1687229109
101249.1295927482
101252.9982286959
101258.6826092132
101265.3500025975
101271.3633996109
101278.4932830168
101286.3114179727
101293.837459741
101301.8998930298
101309.9036851031
101317.3799532547
101325.1454380213
101332.007257851
101337.7188638057
101342.577638831
101346.0499483091
101348.5976411551
101349.5368792711
101349.2440214606
101348.3149330282
101346.0923073314
101343.1214217004
101339.3543222652
101333.9847243679
101328.6485871217
101322.0697552254
101314.8206588155
101307.4461741037
101299.3167233199
101291.20137625
101282.9729245399
101274.7045302916
101266.8442288288
101258.9188080214
101252.577667802
101245.8047942041
101240.1533491536
101236.6150272312
101233.792820565
101232.0240183768
101231.1113864663
101231.1594186836
101232.4289153914
101234.2653270131
101236.1983945882
101239.2546742621
101243.3499234319
101247.4671855566
101252.3454221718
101258.7892929822
101265.005295779
101271.7042783151
101279.2901246134
101286.9858454998
101294.6098836521
101302.1682462732
101309.9854499271
101317.8224343774
101323.5212470084
101330.9515285895
101335.2247336714
101339.1996654033
101342.0190369264
101343.7906489395
101344.1148527364
101343.4377430775
101342.2679819153
101339.121989871
101336.011541927
101331.6763929774
101325.6356418386
101320.6682637344
101314.1062149931
101305.819173732
101299.3921350521
101291.4726904764
101282.7525536592
101275.7422914066
101267.4815799482
101259.9317080736
101253.2473556718
101246.3466271189
101240.8615354352
101236.1010312461
101233.2981598756
101231.1078620627
101229.7289428552
101229.5677855174
101230.13070799
101231.3352816992
101233.8953115296
101236.2130140888
101239.7656713217
101244.8193490203
101248.8839111732
101255.0887048385
101261.6077900993
101267.7778141616
101275.7668508524
101282.9756074542
101290.3162071297
101298.4081477596
101305.7034420559
101312.772949137
101319.5989361715
101325.5776098328
101331.1088041487
101334.6271945762
101338.0415296687
101339.9534596531
101340.7307214216
101340.7242857963
101339.9248809246
101338.015343507
101335.4611853422
101331.4572439809
101326.9767008185
101322.3716674326
101315.2775432119
101309.0144984096
101302.5393668032
101294.3214439828
101287.0011267442
101279.5213110757
101271.5349037129
101264.3323378108
101257.0198434675
101250.6473811704
101244.7688683646
101239.0333146042
101236.0303096391
101233.2196853811
101231.7078183981
101231.241198651
101231.4708523346
101232.7066385188
101234.8649640029
101236.8073658402
101240.2827055538
101244.9297496993
101248.6734332302
101254.1726504296
101260.6163526642
101266.3232462591
101273.5124115593
101280.72273282
101288.0424335968
101295.9326203501
101303.250401468
101310.6418428913
101318.1002167434
101324.4723742515
101330.4307882894
101335.2615996243
101338.7510093313
101341.4640651376
101343.1620993112
101343.5107230652
101342.9949806101
101341.7415301364
101339.4947732135
101336.2435174934
101332.7880881758
101327.0379281073
101321.3769409196
101315.4899525101
101307.2882246862
101300.3086616341
101293.0971887636
101284.442167012
101277.2235724901
101269.6980939478
101262.5956989598
101255.9129741068
101249.7566692133
101243.6282026938
101239.9763738842
101237.0475659895
101234.4054029799
101233.2259403958
101233.0051673452
101233.651100284
101235.7434332689
101237.9701527476
101240.6213651109
101245.2957737207
101249.2280499407
101254.0524070893
101260.8828580733
101265.7749576243
101272.651830334
101280.0690051386
101286.1009873706
101293.6294552805
101301.252736006
101307.8752397155
101315.1484515692
101321.9648855286
101328.2553560262
101333.1519558322
101337.7901535182
101340.9911793412
101343.0802836384
101344.0802949342
101344.1399106591
101342.9279554434
101340.8177098394
101338.1598137422
101333.8379453775
101328.6270609469
101323.6702687252
101316.7697757969
101309.2525827905
101302.5321002067
101294.3091404525
101285.7957679458
101278.1354012211
101270.1723231492
101262.7150001378
101255.8139433031
101249.3573014564
101243.8130095643
101238.8234819383
101235.9540436784
101233.2297447787
101231.6611330706
101231.0483127776
101231.1366545456
101232.2211507492
101234.449821291
101236.9321240139
101240.2122421996
101244.9900749385
101249.5523079243
101255.0450609502
101261.5587477153
101267.7338820003
101274.5190186968
101281.4954258157
101288.5860612306
101295.9863542004
101303.199764339
101310.1210767764
101317.0325528849
101323.4467438152
101328.5653744785
101332.8629413489
101336.5647572548
101338.8134561541
101339.8064072118
101340.5852175447
101339.7832858179
101337.8114152868
101335.9398485402
101332.6204213894
101327.5952813946
101323.5360447377
101317.9843616503
101310.6324570395
101304.16056894
101296.9393617345
101289.0269858049
101281.1769829389
101273.3778400726
101266.1207745277
101258.4251048586
101251.8883297313
101246.4517417686
101240.6138482417
101237.2037039274
101235.2214083156
101232.8719248145
101231.9725723551
101232.0211318938
101232.1393811101
101234.1162136461
101235.8347763222
101238.8238099082
101243.3582601908
101247.1684473472
101253.18755533
101259.6681474123
101265.7367812827
101272.9565666377
101279.7725107482
101286.6444609956
101293.3979420886
101300.3691420683
101307.0078558534
101313.4753468056
101320.1013305548
101325.9469369343
101330.9792176886
101335.2603918636
101338.3219059927
101340.6340438667
101341.6113777249
101341.8823892228
101340.9517519367
101338.5799551673
101335.9127226359
101332.2223608834
101326.757691516
101321.7560521568
101315.8196461848
101308.021844655
101301.4016966031
101293.9451370678
101285.544665122
101278.2272883302
101270.2646866936
101262.4072308997
101256.4143771042
101249.4059694797
101243.4458513509
101239.7204516611
101236.8342315466
101234.2192751207
101233.2446891102
101232.3820534738
101233.1835766952
101234.5934327497
101236.0892749783
101238.4698432058
101242.3788358642
101245.6801720583
101250.5854974735
101256.5770551486
101262.4674926494
101269.4830997441
101276.8283890161
101284.0930709768
101291.6446860159
101298.7842285907
101305.3482437173
101311.7608681093
101317.4456930574
101322.5765306841
101327.6272111884
101331.5930411863
101334.9495720182
101337.6523044831
101340.3508764616
101341.2711156134
101341.5338407822
101340.3115881388
101337.683172915
101334.3024677769
101329.6821742496
101323.6083846406
101317.2329226813
101309.9999582835
101302.0753072817
101294.381495329
101285.9538994029
101277.8277356758
101269.8986905184
101262.1688576146
101255.2554703685
101248.3310833721
101242.5228566749
101237.7341603243
101234.8961555644
101231.9887732955
101230.8653657393
101229.4583077172
101229.9093480764
101231.1974519778
101232.5721769384
101235.0012186584
101238.1542705296
101241.2980400336
101246.413839831
101251.3009094976
101256.8746832726
101263.81553042
101270.5121818929
101277.359151317
101285.0491724352
101292.6661296045
101299.5561229211
101306.6239940986
101314.1115698738
101319.3505520845
101324.734875596
101327.7139242143
101330.2289803233
101332.3483054617
101334.7102736484
101336.1466823809
101337.7266632788
101338.2789299595
101335.9138526784
101333.8270493815
101328.6640302411
101322.2566003018
101317.2430537344
101309.9878527627
101302.5159035581
101296.9574234703
101289.124992761
101281.1215954192
101274.4888840051
101266.6822597237
101258.3990987685
101252.7600478063
101245.4549106671
101240.0662442946
101236.1277362156
101234.4182038707
101231.2386531975
101230.4520250228
101230.723516891
101231.2208191184
101232.5530147062
101234.6350898275
101237.620808958
101240.1655563235
101244.2987402902
101250.0981627709
101254.783184437
101260.0733935633
101269.1427684194
101273.9446148987
101281.3310479513
101292.7138476699
)
;

boundaryField
{
    inlet
    {
        type            uniformFixedValue;
        uniformValue    sine;
        uniformValueCoeffs
        {
            frequency       constant 3000;
            scale           constant 50;
            level           constant 101325;
        }
        value           uniform 101312.8819131453;
    }
    outlet
    {
        type            waveTransmissive;
        gamma           1.4;
        fieldInf        101325;
        lInf            2.25;
        value           uniform 101294.5405279208;
    }
    frontAndBack
    {
        type            empty;
    }
}


// ************************************************************************* //
