/*--------------------------------*- C++ -*----------------------------------*\
| =========                 |                                                 |
| \\      /  F ield         | OpenFOAM: The Open Source CFD Toolbox           |
|  \\    /   O peration     | Version:  v2012                                 |
|   \\  /    A nd           | Website:  www.openfoam.com                      |
|    \\/     M anipulation  |                                                 |
\*---------------------------------------------------------------------------*/
FoamFile
{
    version     2.0;
    format      ascii;
    class       volScalarField;
    location    "0.017";
    object      pMean;
}
// * * * * * * * * * * * * * * * * * * * * * * * * * * * * * * * * * * * * * //

dimensions      [1 -1 -2 0 0 0 0];


internalField   nonuniform List<scalar> 
1000
(
101325.060727068
101325.0403928408
101325.0296580667
101325.0363454396
101325.0585686503
101325.0727814963
101325.0831977533
101325.1187879486
101325.1235181226
101325.160767877
101325.1709346195
101325.1921092189
101325.217578137
101325.2469254061
101325.2434508292
101325.2590854746
101325.2984309989
101325.2986032583
101325.2888718329
101325.3118157099
101325.3221928671
101325.3125667508
101325.3017051907
101325.3107646323
101325.3059266803
101325.2866657834
101325.26479672
101325.2637059102
101325.2501526849
101325.2165010508
101325.2018178737
101325.1931251953
101325.1638701566
101325.1311057149
101325.1338463414
101325.1071500905
101325.0741628162
101325.0683522669
101325.0559836536
101325.0323331157
101325.0194212846
101325.0156957939
101325.0049295099
101325.0052401011
101324.9892966963
101325.003661461
101325.0150690806
101325.0018230764
101325.0181327339
101325.0471860397
101325.0441431631
101325.0566631026
101325.0997737974
101325.1009738168
101325.121718896
101325.1566479288
101325.1747953353
101325.1865707488
101325.2194950899
101325.2353350609
101325.2494715601
101325.2697369263
101325.2851496109
101325.292165935
101325.3125174558
101325.3172014214
101325.3138888591
101325.3264222282
101325.3290223869
101325.3166047431
101325.3067562212
101325.3129174309
101325.2938912554
101325.2714094882
101325.2667369859
101325.2502408743
101325.2198574596
101325.2095972113
101325.1917251537
101325.1627004608
101325.1446353151
101325.1357636083
101325.1045836416
101325.0923958933
101325.0750367863
101325.0611463621
101325.0452951305
101325.0344915884
101325.0264075567
101325.0177732659
101325.0168571163
101325.016109189
101325.0140583967
101325.0254961965
101325.0328073906
101325.0408069728
101325.0551661577
101325.0717470563
101325.0872697596
101325.1121387055
101325.1241169747
101325.149324247
101325.1801627171
101325.1871971885
101325.2048963939
101325.2446628878
101325.2487383489
101325.2515166722
101325.2909162576
101325.2947709971
101325.291824448
101325.3176038771
101325.322032978
101325.3056488457
101325.3237225302
101325.3261835767
101325.2998069481
101325.3042109861
101325.3029774738
101325.2670970292
101325.2589235697
101325.2596288744
101325.2161223886
101325.2001449433
101325.2015812329
101325.1595620788
101325.1362343988
101325.1414316032
101325.1046439577
101325.0747065984
101325.0846474668
101325.05912203
101325.0267673948
101325.0384840954
101325.02774398
101324.9970222109
101325.0072612589
101325.0167954627
101324.9910529949
101325.0064022372
101325.0286912197
101325.0148016265
101325.0282947652
101325.0627271296
101325.0632989207
101325.0773965379
101325.1127404468
101325.1242165564
101325.1404961972
101325.1754544342
101325.1826929684
101325.2001172303
101325.2289692484
101325.2365369281
101325.2396103981
101325.2743934024
101325.2733576798
101325.2731090894
101325.2896865779
101325.2930761739
101325.2812308998
101325.2887920794
101325.2892063906
101325.2671241802
101325.2645179036
101325.2530255039
101325.2322090777
101325.2108557523
101325.2031173298
101325.1777651122
101325.1481111515
101325.1402937451
101325.1156713237
101325.0868779204
101325.075933626
101325.0574651551
101325.0306126653
101325.0204408833
101325.0050919097
101324.9854201808
101324.9826302397
101324.9624663805
101324.9594951729
101324.9584506268
101324.9528625048
101324.9462614952
101324.9685725286
101324.962816561
101324.9645512781
101324.997416716
101325.0004474024
101325.0076022362
101325.0381859926
101325.0631335374
101325.0641091606
101325.0955387081
101325.1232830336
101325.125503964
101325.1434481646
101325.1723779758
101325.1713684492
101325.1823662616
101325.2039637693
101325.2064237957
101325.2038994151
101325.2145919387
101325.2149904925
101325.2099242802
101325.2049426231
101325.2014217468
101325.188524659
101325.1729690645
101325.1611326901
101325.1428432459
101325.1208068396
101325.0987966008
101325.0833866037
101325.0573262625
101325.0323319028
101325.0164186497
101324.9981289792
101324.9671611434
101324.9573698498
101324.9385417907
101324.9181603457
101324.9013791673
101324.8949478725
101324.8794902077
101324.8661798616
101324.8617230195
101324.8620857932
101324.8538022678
101324.8553692012
101324.869218883
101324.864337368
101324.87622595
101324.8945836824
101324.8972223202
101324.92203628
101324.9400578301
101324.9515290148
101324.9777890834
101324.9937298818
101325.004991006
101325.0288607465
101325.0379997026
101325.0496135397
101325.0584024469
101325.0719088084
101325.0753786234
101325.0789999597
101325.0800268322
101325.0825571684
101325.0756149015
101325.0725602384
101325.0645785564
101325.0567336432
101325.0343794323
101325.0289924375
101325.0077671829
101324.9786540549
101324.9657078211
101324.9438452332
101324.9120115834
101324.893163702
101324.8750697062
101324.8485040152
101324.8240444207
101324.808085442
101324.7903978254
101324.7641194941
101324.7495414015
101324.7389444591
101324.7233249615
101324.7053234397
101324.7003180993
101324.6984999094
101324.6871428079
101324.6845796716
101324.6977369496
101324.6923790564
101324.6974882137
101324.7133845445
101324.722076512
101324.7328766892
101324.748776907
101324.7724890128
101324.783701779
101324.7999538039
101324.819984127
101324.8371071711
101324.8400926281
101324.8575644819
101324.8683827546
101324.8667151109
101324.8838980862
101324.8855268419
101324.8780420475
101324.8775048849
101324.8862865331
101324.8660384332
101324.8578909787
101324.8603203493
101324.8386425229
101324.8133776043
101324.8084552944
101324.7835314478
101324.7507516561
101324.7368355564
101324.7096653623
101324.6820596302
101324.6583985348
101324.6392140237
101324.609388354
101324.5901614847
101324.5682233098
101324.5456544565
101324.525477845
101324.5136354129
101324.4973377249
101324.4767087804
101324.4699558402
101324.4629376538
101324.4490903506
101324.4497228553
101324.4543058511
101324.4484836827
101324.449975247
101324.4678669199
101324.4686502195
101324.4770123694
101324.4974984481
101324.5154357939
101324.520230786
101324.5462119352
101324.5618584385
101324.5685261855
101324.5880010106
101324.6014093253
101324.6028524689
101324.6117960624
101324.623317957
101324.6218132551
101324.6197960229
101324.62136648
101324.6155796152
101324.6076781119
101324.5998720493
101324.5909283321
101324.5764731223
101324.5570139108
101324.5402973224
101324.5182070386
101324.4928546834
101324.4703853934
101324.4440799497
101324.4132373907
101324.3896805194
101324.3687088021
101324.3302663466
101324.3159901657
101324.2923195197
101324.259275477
101324.2379395359
101324.2310542643
101324.1966061037
101324.1821842403
101324.173435388
101324.1508867647
101324.138107097
101324.1386615783
101324.1264557857
101324.117118907
101324.1244451814
101324.118927863
101324.1243334968
101324.1220791233
101324.1361141887
101324.1408583337
101324.1508030701
101324.1642397781
101324.1693494487
101324.1883214994
101324.1935572605
101324.1945707954
101324.2062459921
101324.212146342
101324.2048922937
101324.2137873457
101324.2158890271
101324.2029991824
101324.1979575949
101324.1997900898
101324.184903335
101324.1739509955
101324.1688959086
101324.1509641755
101324.1321225828
101324.1208357907
101324.0989141742
101324.072821498
101324.0570880977
101324.0396645398
101324.0050179877
101323.9899601237
101323.9758353792
101323.9384428447
101323.9231199727
101323.9109341457
101323.8763363319
101323.8604337564
101323.8516208735
101323.8275498142
101323.8115236272
101323.7954366552
101323.786939932
101323.7751559365
101323.7628698592
101323.7628877825
101323.752810879
101323.7538357708
101323.7502373255
101323.751095291
101323.7479525436
101323.7635961607
101323.7641723969
101323.768075806
101323.7847611386
101323.7896418006
101323.7922163069
101323.8097171643
101323.8103713373
101323.8022260471
101323.8189591888
101323.81763347
101323.8092377987
101323.8088608903
101323.805590685
101323.7939596859
101323.7861156848
101323.7778248014
101323.766361677
101323.7458880041
101323.7404359818
101323.7193801008
101323.6930815414
101323.6785603592
101323.6606912219
101323.6263350337
101323.6147288478
101323.5888411389
101323.560018151
101323.5437579246
101323.5253476175
101323.4905205769
101323.4725612996
101323.4601496443
101323.4296975451
101323.4102760577
101323.4041756425
101323.3781727636
101323.3542751221
101323.3621904049
101323.3375178599
101323.3239932324
101323.3267013674
101323.3251538437
101323.3058327608
101323.3146361526
101323.3172181783
101323.3019989449
101323.317453412
101323.3277668883
101323.3182276349
101323.3312064196
101323.3477486727
101323.3400740446
101323.3420411124
101323.3550405044
101323.3454613216
101323.3452939442
101323.3482344498
101323.3388648501
101323.3325321013
101323.3203180181
101323.3157767899
101323.2982798339
101323.2853266017
101323.2701272834
101323.2591318657
101323.2314690675
101323.2159803782
101323.1922413571
101323.1649930185
101323.1459243631
101323.1169898159
101323.0917208194
101323.0693577006
101323.0440936909
101323.0141454722
101322.9965837973
101322.9691304372
101322.9355204143
101322.9219620587
101322.9045366825
101322.8753306564
101322.8563871601
101322.8447370979
101322.8235077521
101322.8071831875
101322.7984090227
101322.7884119745
101322.7825671207
101322.7740340086
101322.7690490167
101322.7634515947
101322.7656178325
101322.7637114987
101322.7611887524
101322.7702281678
101322.7762975773
101322.7697299297
101322.7849440728
101322.7845760801
101322.7818847787
101322.7803137057
101322.7764852945
101322.7778660247
101322.7716589366
101322.7599219618
101322.7482036989
101322.7408231661
101322.7273571817
101322.7072383722
101322.6921577522
101322.6805321733
101322.6533945719
101322.6379649866
101322.6085019422
101322.5814508576
101322.5599094264
101322.5311122167
101322.500144235
101322.4808577945
101322.4439095558
101322.4228847318
101322.4025339263
101322.3625605512
101322.3379387251
101322.3209096287
101322.2876257273
101322.2652064135
101322.2533529819
101322.2206418493
101322.2007220373
101322.1946296958
101322.175253357
101322.151484497
101322.1603756307
101322.1478585592
101322.1282440098
101322.1345495889
101322.131932988
101322.1161046446
101322.1230762937
101322.1287480204
101322.1245066988
101322.1252301416
101322.13728637
101322.1370622783
101322.1256623973
101322.1344938823
101322.1340840221
101322.1211841671
101322.1141202428
101322.1193169887
101322.1022454334
101322.0787382297
101322.0805822708
101322.0592868928
101322.0356167065
101322.0254859251
101322.0093573519
101321.9751161313
101321.9534075056
101321.9421001195
101321.8954297574
101321.8750476031
101321.8559211617
101321.8171748182
101321.7904891146
101321.7740210164
101321.7400812038
101321.708138551
101321.6829961274
101321.6615202758
101321.6271466757
101321.6072959957
101321.5888182049
101321.5566794296
101321.5391291946
101321.5221686166
101321.5004505815
101321.4868985215
101321.478481537
101321.4674959764
101321.4589359917
101321.4471796976
101321.4445664179
101321.4374024251
101321.4305430095
101321.4335531133
101321.4361024229
101321.4267123856
101321.4339130066
101321.4392094451
101321.4342142869
101321.4258893987
101321.4294933216
101321.420051644
101321.4098853922
101321.4119949905
101321.3920151576
101321.3797915361
101321.3655743508
101321.3477857157
101321.3278587063
101321.3137418437
101321.2903924763
101321.2684788552
101321.2445727936
101321.2111529866
101321.1883443228
101321.1578617521
101321.1250870117
101321.0981103559
101321.071888097
101321.0353270935
101321.0112008678
101320.9851549646
101320.9514899921
101320.9173850966
101320.8910321148
101320.8715257604
101320.8406539242
101320.8144753106
101320.7942944723
101320.7696019491
101320.7486236586
101320.7311844421
101320.725483729
101320.7050679819
101320.697091257
101320.696056597
101320.6730513323
101320.6710500362
101320.6747181902
101320.659587952
101320.6626955709
101320.6645133393
101320.6565211005
101320.6649795971
101320.6643121613
101320.6503128531
101320.6523539234
101320.6515346709
101320.6346816288
101320.6292237706
101320.6280172236
101320.6064181293
101320.5881735971
101320.5781858741
101320.5584092316
101320.5344198925
101320.5232883928
101320.5009724859
101320.4657229488
101320.4476542352
101320.4140917562
101320.3851334699
101320.3531844604
101320.3283220909
101320.2907689749
101320.2655916332
101320.235057399
101320.2061728452
101320.170788105
101320.1445499356
101320.1155661249
101320.082037563
101320.0617673877
101320.037282789
101320.0040591826
101319.9884413921
101319.9677964796
101319.9409596167
101319.9322350635
101319.9234301815
101319.9105084674
101319.9002359282
101319.8935793646
101319.8840604032
101319.8799352518
101319.8727308525
101319.875226454
101319.8749337074
101319.8699068183
101319.8728786658
101319.8757389126
101319.8671297757
101319.8660482419
101319.8678183956
101319.8491239016
101319.8487266985
101319.8498661426
101319.8277057193
101319.8079189444
101319.8087823419
101319.7818574497
101319.7556335239
101319.750336509
101319.7312586455
101319.6970223588
101319.6739663546
101319.6578185512
101319.612281883
101319.5816641089
101319.5716733024
101319.5291937507
101319.4943564637
101319.4812682891
101319.4449024404
101319.4095017708
101319.3944488464
101319.3597027634
101319.3226813655
101319.3142277518
101319.2876515755
101319.2488213969
101319.2402598202
101319.2229239539
101319.1825576213
101319.1844286049
101319.1750787248
101319.1528403023
101319.1554995802
101319.1460910802
101319.1345888033
101319.1309039002
101319.1312836925
101319.1190752616
101319.1256735801
101319.1327496438
101319.1207629473
101319.1235505351
101319.1359909104
101319.117021948
101319.1146765845
101319.1187563568
101319.1115403219
101319.0948162822
101319.0996884898
101319.08008812
101319.0637517189
101319.0525340109
101319.0346167015
101319.0091709838
101319.000633438
101318.9771542594
101318.9460876095
101318.9250792243
101318.8977617712
101318.8620980629
101318.8334191275
101318.8099787791
101318.7754899901
101318.7497491861
101318.7264406747
101318.6925819551
101318.6674771638
101318.6365670074
101318.6146844674
101318.5832573458
101318.5621797525
101318.5392947312
101318.5152403419
101318.4858740432
101318.4729688208
101318.452164648
101318.4343016276
101318.4280376328
101318.4191590367
101318.4036003782
101318.4059697129
101318.3933363609
101318.3788020304
101318.3860316383
101318.3816628522
101318.3726724407
101318.3813356976
101318.3827574783
101318.3711142045
101318.3702761482
101318.3785124644
101318.3545558196
101318.3530276348
101318.3570818305
101318.3348754555
101318.3250040995
101318.3165169452
101318.2944987716
101318.2736091465
101318.2597281651
101318.2436836448
101318.2131180564
101318.1962851701
101318.1667306212
101318.1478353799
101318.1023551306
101318.0754519289
101318.0553835068
101318.0142263587
101317.9804383176
101317.9706585904
101317.9353761216
101317.8885737363
101317.8794911017
101317.8519372633
101317.8063362826
101317.7878278124
101317.7793941723
101317.733367696
101317.712118306
101317.7064032
101317.6708852191
101317.6491532131
101317.6588363581
101317.6325727639
101317.6219758661
101317.6242422929
101317.6142777609
101317.5978386929
101317.6034281709
101317.595562124
101317.5928727276
101317.5918853057
101317.5956672447
101317.5950509386
101317.5896634055
101317.5849569831
101317.5774894793
101317.5780520006
101317.5626537096
101317.5558052355
101317.5502485165
101317.5374793974
101317.5086791924
101317.507823337
101317.4800250006
101317.4616004215
101317.4473537981
101317.4268789829
101317.3911046314
101317.3707662344
101317.3443667091
101317.3023861269
101317.2819192874
101317.2464790629
101317.2150775944
101317.1903766977
101317.1668179574
101317.134255862
101317.1072240509
101317.080882408
101317.0495150582
101317.0280203664
101317.0041617678
101316.9760691298
101316.9549695398
101316.938728782
101316.9109153345
101316.8901872976
101316.8827289899
101316.874050944
101316.8601684095
101316.8552806673
101316.8471343003
101316.8362533582
101316.8382363841
101316.8273064209
101316.8301973866
101316.8251259459
101316.8191332113
101316.8288408771
101316.8309308187
101316.8151525055
101316.8118591544
101316.81868109
101316.7993570283
101316.7882243197
101316.7897015888
101316.7718463315
101316.7539372782
101316.7429863444
101316.7242482555
101316.6894259004
101316.6976782965
101316.6695158631
101316.6366197726
101316.615694863
101316.5925529826
101316.5498114537
101316.5279254308
101316.50437561
101316.4500018767
101316.4331039856
101316.4134349409
101316.3765294871
101316.3470432364
101316.3345141385
101316.2888797128
101316.2705592859
101316.2568107197
101316.2172445212
101316.1939109339
101316.1875393035
101316.1505882992
101316.1292257978
101316.1188494406
101316.1012517308
101316.0926183073
101316.0903451815
101316.0707493067
101316.0576069814
101316.0603328329
101316.052835613
101316.047183327
101316.0405815948
101316.0431733538
101316.0298496481
101316.0365098698
101316.0403283146
101316.0172992595
101316.0158110724
101316.0196062559
101315.9952313836
101315.9899999538
101315.9833816817
101315.9554839729
101315.9447546638
101315.9365188658
101315.8981570665
101315.8728976267
101315.8859945739
101315.8416995588
101315.816411853
101315.7871520708
101315.7637678934
101315.7235780711
101315.6983376696
101315.6712034368
101315.6226251945
101315.6050550274
101315.5716290826
101315.543780835
101315.5173178277
101315.4897572491
101315.4605452251
101315.4348717136
101315.4094475865
101315.3868655094
101315.3585573079
101315.333787232
101315.3186607607
101315.2967046672
101315.2692081766
101315.284437932
101315.2608981831
101315.2544215555
101315.2390348437
101315.2347758341
101315.2341634866
101315.2176274395
101315.2210510186
101315.2281016513
101315.2129070496
101315.197982209
101315.2248728394
101315.2149752656
101315.1706760976
101315.2067537266
101315.1858723796
101315.1458303361
101315.2005793642
101315.0875416816
101315.1349129175
101315.1393370995
101315.0466613279
101315.006000818
101315.0889582714
)
;

boundaryField
{
    inlet
    {
        type            calculated;
        value           uniform 101325.0020780952;
    }
    outlet
    {
        type            calculated;
        value           uniform 101315.1009170864;
    }
    frontAndBack
    {
        type            empty;
    }
}


// ************************************************************************* //
