/*--------------------------------*- C++ -*----------------------------------*\
| =========                 |                                                 |
| \\      /  F ield         | OpenFOAM: The Open Source CFD Toolbox           |
|  \\    /   O peration     | Version:  v2012                                 |
|   \\  /    A nd           | Website:  www.openfoam.com                      |
|    \\/     M anipulation  |                                                 |
\*---------------------------------------------------------------------------*/
FoamFile
{
    version     2.0;
    format      ascii;
    class       volScalarField;
    location    "0.017";
    object      rho;
}
// * * * * * * * * * * * * * * * * * * * * * * * * * * * * * * * * * * * * * //

dimensions      [1 -3 0 0 0 0 0];


internalField   nonuniform List<scalar> 
1000
(
1.176219819974559
1.176252971633704
1.176214580151256
1.176109515820279
1.176072458732313
1.176007701519895
1.175944211166045
1.175912016640489
1.175890967273804
1.175852209698754
1.175844798624295
1.175838735405472
1.175841385337315
1.175860498359038
1.175884269943654
1.175927247867596
1.175966266838369
1.176023843474319
1.176093577795448
1.176153798346102
1.17623353332727
1.176309376740056
1.176387400814153
1.176471959771995
1.17654742889083
1.176628955911512
1.176700101052789
1.176764620926486
1.176823447907057
1.17687730301957
1.176912235810231
1.176935203946055
1.176957671317086
1.176964343972494
1.176963321718809
1.176953715997483
1.176930047867391
1.17690882332701
1.176867765949843
1.17681580579826
1.176771575887979
1.176699998677571
1.176627414032738
1.176568017936449
1.17648718265392
1.176409292431018
1.176345314062539
1.176267285644351
1.176196624433857
1.176132424979246
1.176064503896896
1.176004300301964
1.175950574599633
1.175908439570526
1.175880413402493
1.175853987883741
1.175846562210276
1.175839257537154
1.175845749490274
1.175855195920415
1.175878058998774
1.175896637859602
1.175943991726771
1.17599311033859
1.176044279917222
1.176120961009352
1.176189164587476
1.176261503285759
1.176348079848776
1.176428331451346
1.176504240527839
1.176583261320927
1.176656716779512
1.176723932874425
1.176786426457546
1.176846937651058
1.176889627011989
1.176914485819676
1.176938273136219
1.176948607918307
1.176945949559794
1.176936044506016
1.176924145267257
1.17690454624495
1.176864595326609
1.176829305567899
1.176785031598335
1.176715287082126
1.176657926609437
1.176590332110151
1.176506477709231
1.176433264491325
1.176360111479931
1.176278077092159
1.176208186745214
1.176141671838984
1.176073304845084
1.176005250067409
1.175963602256245
1.175901794958532
1.17587586375553
1.175847958402751
1.175834716491631
1.17582663463271
1.175826530018517
1.175835902382535
1.175854266794209
1.175872797186434
1.175906528079391
1.175951335261236
1.175994928926581
1.176064728981045
1.176128130062131
1.176197844677691
1.176284044043614
1.176361220878684
1.176444586260672
1.176528034554896
1.17660158795688
1.176677204095269
1.176745729226978
1.176807347800714
1.176853715666688
1.176886346389929
1.176913778945473
1.176924349918711
1.17693062538822
1.176925159675852
1.176909521231429
1.176895516226118
1.176867618811476
1.176823408213108
1.176788320154177
1.176731521283199
1.176664898625703
1.176606007201322
1.176528374436246
1.176451776100678
1.176377972457618
1.17629582294801
1.176221635772539
1.17614725919167
1.176077326077241
1.176015848523909
1.175959724820905
1.175904946238896
1.175871374146343
1.175852500490081
1.175828003715697
1.175818658386499
1.175821978312929
1.175821203954967
1.175836847698082
1.175855691157555
1.17588228304196
1.175924548723703
1.175966063081806
1.176020629369546
1.17608796168315
1.176150786569866
1.176229215270372
1.176310454213992
1.176391877527627
1.176475217570735
1.176555523168091
1.176632392415275
1.176706974951625
1.17676997404603
1.176831202528905
1.17686108608361
1.176895801428125
1.176908792203182
1.176916527251826
1.176915769569606
1.176907184982076
1.176892390241888
1.176865991693832
1.176830540635345
1.176794678310822
1.176742714135406
1.176684119214624
1.176622761925638
1.176550606936848
1.176478337003836
1.176399642205533
1.176320084253883
1.176245058345638
1.176164297581569
1.176091694850963
1.176025311388992
1.175963517137013
1.175900988194992
1.175864983150813
1.17583923316778
1.175818106830106
1.175805163711763
1.175803759589765
1.175803722884134
1.175818594864903
1.175830309860174
1.175849802822356
1.175890111248257
1.175925008879873
1.175977285951797
1.176039895523755
1.176096546739574
1.176169778463324
1.176251028279064
1.176330661188582
1.176410513386451
1.176493045825076
1.176579021182195
1.176646866030342
1.176721367800504
1.176791357516803
1.176830392916722
1.176867469403374
1.176886471967562
1.176900422757597
1.176901837148946
1.176895085277497
1.176884122737772
1.176859422993156
1.176826148062443
1.176796723358796
1.176747376858908
1.176688123574028
1.176635863827381
1.176566326655064
1.176489529476023
1.176416333850774
1.176340276359352
1.176259563630885
1.176178944084282
1.176108217830618
1.17603561011278
1.175963840576651
1.175904409621372
1.175858795027798
1.175827003486494
1.175804358508501
1.175794498082333
1.175783852012629
1.175785848160511
1.175795318388408
1.175806507068786
1.17582078157287
1.175856697429462
1.175891264920262
1.175928730047495
1.175990652735477
1.176048102604283
1.176108543104894
1.176194716746821
1.176268026987897
1.176344390092759
1.176436209357924
1.17651140937584
1.176590991386329
1.176668804599308
1.176737193079138
1.176794688931747
1.176830977601895
1.176853956046559
1.176877195991153
1.176878448416659
1.176874630739708
1.176864544948268
1.176849925148011
1.17681583100531
1.176785612653236
1.176745018061631
1.176685652532267
1.176634011875832
1.176568931994779
1.176496133303063
1.176424407398097
1.176348222105733
1.176268402816521
1.176190601031281
1.176110465137837
1.176037955177014
1.175967533043953
1.175906701546736
1.175844434699991
1.175811514876048
1.175789001892813
1.17577046700136
1.17576042721518
1.175759471448491
1.17576335360366
1.175776874637024
1.175791832846721
1.17581554988535
1.175853212728021
1.175890601414392
1.175942516192405
1.176000225206993
1.176059022909328
1.176133957652387
1.176207740410999
1.176287588192111
1.176370139661255
1.17645131752862
1.176533124523984
1.176608691856506
1.176678610755221
1.17674929652159
1.176788891317912
1.176821138452355
1.176844622051446
1.176852275770865
1.176853601965844
1.176844235896994
1.17683054042137
1.176807098401441
1.176772398611302
1.176737393742203
1.176688537570372
1.176629543118916
1.176572817020281
1.176502362965893
1.176431575266568
1.176355891724926
1.176278186509403
1.176201501401853
1.176122136500791
1.176049568720595
1.175978070589109
1.17590956188367
1.175852810659133
1.175801855096298
1.175782434832241
1.175760184233235
1.175749547180872
1.175745663687891
1.175747211342724
1.175763843153336
1.175775359679408
1.175794294132825
1.175832113898176
1.175862267689728
1.175910881278506
1.175970655596174
1.176016405548766
1.176092267064083
1.176169141033933
1.176235627765305
1.176322741695823
1.176407670332223
1.176482771774015
1.176565098331863
1.17664980187558
1.176709443998745
1.176777038342688
1.17681439115351
1.176847189564439
1.176863992955366
1.176873550988151
1.176867888555942
1.176857655662443
1.176843103202179
1.176811780245135
1.17677944361013
1.176742369155479
1.176685084786871
1.176630582328343
1.176571208007358
1.176499958389969
1.176430759256087
1.176359606163667
1.176282024758857
1.176208109230269
1.17613242619862
1.176061854520997
1.175994145763877
1.175933294539186
1.175875789933429
1.175834285950223
1.175811092601679
1.175793307101042
1.175777330743374
1.175775519061937
1.175779391012457
1.175788022469616
1.175801913101958
1.175818092057201
1.175844245720635
1.175879232967638
1.175915446903796
1.175963751224099
1.176013747571289
1.176067245706187
1.17613476164152
1.176197938763467
1.176262459480204
1.176337213266709
1.17640483304666
1.176469324825698
1.17653758041371
1.176597591066823
1.176648053168636
1.176687258785421
1.176712573376592
1.176733897128606
1.1767428601668
1.176740727173223
1.176732256056766
1.176720667113521
1.176696902247549
1.176665226102518
1.176634540889463
1.17658999036898
1.176537661817167
1.176486023393799
1.176424012519293
1.176360344171241
1.176294560065213
1.176226268704122
1.176159183528405
1.176090662917679
1.17602865380844
1.17596716056526
1.175908724164599
1.175859307819437
1.175820097724286
1.175795632640078
1.175782674797325
1.17576679664002
1.175765952281395
1.175772247061908
1.175781777979287
1.175796166552979
1.175814617166143
1.175844561934849
1.175880042389093
1.175916876567323
1.175967092919532
1.176020333218327
1.176073725284778
1.176139578696847
1.176208902027649
1.17627228930442
1.176340761594888
1.176417175509836
1.176474676251807
1.176540119753875
1.176602253397957
1.17664659385326
1.176678107931732
1.176711716395043
1.176719610637908
1.176726847038675
1.176723528578212
1.176710390724709
1.176691058847173
1.17666554271198
1.176625183740751
1.176586310605017
1.176539234574223
1.176477990868378
1.17642026408808
1.17635788603757
1.176285822374392
1.176217212157298
1.176146522897433
1.176078442209086
1.176012844499051
1.17594816472961
1.175887839045425
1.175837881147499
1.175787844336205
1.175769244833984
1.17573990632499
1.175731476647122
1.17572574347896
1.175726264115044
1.175732409108492
1.17575019190222
1.175763819805183
1.175789155381318
1.175826233159943
1.17585718654333
1.175903100534968
1.17595635989254
1.176008888842632
1.176069342574917
1.176132576466298
1.176197136454934
1.176267582058386
1.176333903545442
1.176399590613282
1.176468383381253
1.17652438577643
1.176577073774704
1.176613561166452
1.176647358644139
1.176663183883246
1.17667368208287
1.176674538646915
1.17666649936993
1.176651041580105
1.176624894197072
1.176596199301057
1.176557233144526
1.176510434358314
1.176463854355617
1.17640106628513
1.176337542523373
1.176276272021825
1.176204930307171
1.17613408508332
1.176068989041793
1.176000406977442
1.175932287191592
1.175880054601171
1.175820238281005
1.175771757995403
1.175737288891174
1.175713336825679
1.175698015413031
1.175686255995823
1.175685443344667
1.175693479905581
1.175704927432124
1.175719514147342
1.175744423781244
1.175777811165643
1.175809887940997
1.175850878116369
1.175905962165249
1.175954260729349
1.176009114395187
1.176072881596413
1.176137256073674
1.176201770224547
1.17626752357267
1.176335354243396
1.176396354176346
1.176455198009417
1.176510733169242
1.176554043136115
1.176584334861663
1.17661263035668
1.176624836650999
1.17662724733769
1.176626661288461
1.176611865354782
1.17658904922307
1.176569905459822
1.176526469525212
1.176483209518378
1.176444113617537
1.176383135625642
1.176323862777312
1.176268891416595
1.176198953179476
1.176129575416384
1.176064521528165
1.175996711685351
1.175933814424641
1.175874181022241
1.17581157296394
1.175768839261298
1.175722372428694
1.175702168266894
1.175677497874768
1.175669773759346
1.17566628085506
1.175669840546316
1.17567803763066
1.175699394948141
1.175715612085611
1.17574138031212
1.17578252418249
1.1758146095699
1.175861753198018
1.175917048126496
1.175966918847728
1.176026047498529
1.176090882285691
1.176153293663582
1.176220151512809
1.176286521457155
1.176348515748991
1.176412906840731
1.176469803491858
1.176517162016564
1.176557448605157
1.176586238915413
1.176607362685299
1.176615150201014
1.176612722028648
1.176605018649482
1.176586590050313
1.176561957291533
1.176530722552077
1.176486199930153
1.176441954395005
1.176387403828276
1.176327294091923
1.176266143682803
1.1761987313225
1.176131434152856
1.176063197660727
1.175994628162349
1.175929441419452
1.175863713227283
1.175811122810007
1.175754950931298
1.175708078773576
1.17567873217277
1.1756553248224
1.175640654268232
1.175633084814252
1.175633483215908
1.17564401250284
1.175659243709149
1.175675276661698
1.175700625335782
1.1757345906383
1.175768738312447
1.175809196996757
1.175862639239296
1.175914190964498
1.175969747290819
1.176032656977605
1.17609647665553
1.176159700379941
1.176222378028032
1.17628720083103
1.176352186096818
1.176399440347236
1.176461050912284
1.176496482928767
1.176529441383291
1.176552818202987
1.176567507426022
1.176570195518941
1.176564581284247
1.17655488223861
1.17652879722863
1.176503006803981
1.176467061307928
1.176416972612221
1.176375783793191
1.176321371198173
1.176252653101627
1.176199357754554
1.176133685443347
1.176061371297875
1.176003235610471
1.175934728427509
1.175872114861201
1.175816678265236
1.175759445992576
1.175713953671442
1.175674470430735
1.175651223376359
1.175633056890645
1.175621619951267
1.17562028327559
1.175624952235714
1.175634943088258
1.175656176052485
1.175675399205904
1.175704864871722
1.175746778973098
1.175780489632205
1.1758319499158
1.175886015460208
1.175937185608197
1.176003439860408
1.176063221651511
1.176124095692402
1.176191198949418
1.176251694438412
1.176310316404104
1.176366918079193
1.176416492739338
1.176462356189849
1.176491529564907
1.176519839790131
1.176535692624012
1.176542137358139
1.176542083970495
1.176535455680242
1.176519622691333
1.176498444696951
1.176465245365727
1.1764280937129
1.176389909734393
1.176331085020648
1.176279150874104
1.176225457370961
1.17615731020222
1.176096605243744
1.176034576266273
1.175968344614021
1.175908612136243
1.175847966721348
1.175795116273295
1.175746361650068
1.175698791863462
1.175673885038067
1.175650573687665
1.17563803414023
1.175634163973275
1.175636068774566
1.175646318426344
1.175664219564969
1.175680329969921
1.175709154216549
1.175747695788477
1.175778745124876
1.175824353698006
1.175877794199734
1.175925123622086
1.17598474478798
1.176044539967835
1.176105241147056
1.176170671744585
1.176231354162037
1.176292646178297
1.176354491908035
1.176407329472834
1.176456735474537
1.176496791021026
1.176525723742501
1.176548219053118
1.17656229823907
1.17656518880365
1.176560912557244
1.176550519616443
1.176531890607827
1.176504932687868
1.176476281621313
1.176428602653242
1.176381662530064
1.176332847795707
1.176264837439814
1.176206960437998
1.176147159282597
1.1760753854568
1.176015522225226
1.175953112840143
1.175894210690523
1.175838787947496
1.1757877301552
1.175736902251864
1.175706614533947
1.175682323191057
1.175660409140731
1.17565062658337
1.17564879551534
1.175654152913487
1.175671506636256
1.175689975008259
1.175711963995787
1.17575073252767
1.175783345869872
1.175823357524788
1.175880005421791
1.175920577584361
1.175977609028006
1.176039119675298
1.176089142316616
1.17615157366923
1.176214789850131
1.176269705984661
1.176330016765108
1.176386538765607
1.176438698435365
1.176479299721889
1.176517757891776
1.176544299232379
1.176561620947509
1.176569912475979
1.17657040680087
1.176560357920886
1.176542860839535
1.176520822938103
1.176484987744659
1.176441780427002
1.176400679764342
1.17634346116396
1.176281127417975
1.176225399236867
1.176157210570248
1.176086611738566
1.176023085208648
1.175957046843647
1.175895201307221
1.175837967868278
1.175784419099101
1.175738436172886
1.17569705369886
1.175673254721599
1.175650659336223
1.175637649181514
1.175632566344712
1.175633299031438
1.175642293952152
1.175660778554772
1.175681366803273
1.175708571977996
1.175748198334365
1.175786036377568
1.1758315912431
1.175885612111029
1.175936824616186
1.175993094849944
1.176050950101222
1.176109751555449
1.176171119531336
1.176230936479929
1.176288330071569
1.17634564096766
1.176398827250633
1.176441270056161
1.176476904354961
1.176507598439757
1.176526243557199
1.176534476666613
1.176540934262433
1.176534284963013
1.176517935031799
1.176502416836198
1.176474893435713
1.176433226152968
1.176399567634668
1.17635353357864
1.176292570662572
1.176238904009332
1.176179022780317
1.176113408459674
1.176048309929714
1.17598363158725
1.175923447478308
1.175859624632332
1.175805411579509
1.175760322268346
1.175711903840252
1.175683620340959
1.175667179184362
1.175647692514761
1.175640233234825
1.175640635969467
1.175641616743924
1.175658012637591
1.175672266500756
1.175697057378341
1.175734665349965
1.175766266494081
1.175816186775613
1.175869933504193
1.175920263149141
1.175980138132058
1.176036663033414
1.176093651286588
1.176149655833372
1.176207464770112
1.176262515418813
1.176316145247246
1.17637108828752
1.176419559453165
1.176461286042985
1.176496784056851
1.176522168868571
1.176541339981023
1.176549443564376
1.176551690683906
1.176543974230661
1.176524308380668
1.17650219290537
1.176471593799868
1.176426281948989
1.176384809164182
1.176335584596171
1.176270923763966
1.17621602746434
1.176154193966225
1.176084531342674
1.17602384921724
1.175957814777825
1.175892650811789
1.175842949405699
1.175784824692178
1.175735392963305
1.175704494971066
1.175680556853042
1.175658868411422
1.175650785128711
1.175643630431159
1.175650278244482
1.175661971588476
1.175674378135989
1.175694122508255
1.175726543081433
1.175753923835839
1.175794607199994
1.175844298570303
1.175893150627929
1.175951333088304
1.176012248389881
1.176072493916874
1.176135117606323
1.176194322791512
1.176248754262133
1.17630192936996
1.176349068521389
1.176391613300964
1.176433492814594
1.17646637647031
1.176494207709641
1.176516617654434
1.176538992982122
1.176546623107838
1.176548801455984
1.176538667152732
1.176516873529203
1.176488842040792
1.176450532060525
1.176400169313924
1.176347304199994
1.176287327560165
1.176221614032751
1.176157813208872
1.176087925861027
1.176020536515497
1.175954780382425
1.175890674728658
1.17583333892443
1.175775910833411
1.175727738703988
1.175688021698579
1.175664483357039
1.175640369382483
1.175631051698337
1.17561938140038
1.175623122328572
1.175633805996557
1.175645208086925
1.175665354687453
1.175691505976441
1.175717580326973
1.175760009726206
1.175800541574294
1.175846768231358
1.17590433136038
1.175959868135693
1.176016650410051
1.176080422553159
1.176143587269007
1.176200722315729
1.176259331326654
1.176321419463168
1.176364861473291
1.176409508701697
1.176434212837396
1.176455069091728
1.176472646277046
1.176492234142066
1.176504148846316
1.176517260555878
1.17652184212248
1.176502232464554
1.176484934109787
1.176442119764956
1.176388977090415
1.176347383398346
1.17628718696959
1.176225170297683
1.176178993386286
1.176113927834253
1.176047428837039
1.175992302488383
1.175927481619166
1.17585874931271
1.175812052687323
1.175751681510478
1.175707422334611
1.175675198227523
1.175661921582932
1.175636221920661
1.175630316689231
1.175633796021927
1.17563927021377
1.175651511167375
1.175669502983953
1.175694948853177
1.175716559532666
1.175751021751524
1.175798376034721
1.17583460086163
1.175874326680217
1.17594094256332
1.175977426032708
1.176019540433761
1.176124936136
)
;

boundaryField
{
    inlet
    {
        type            calculated;
        value           uniform 1.176271021779363;
    }
    outlet
    {
        type            calculated;
        value           uniform 1.176131240753806;
    }
    frontAndBack
    {
        type            empty;
    }
}


// ************************************************************************* //
