/*--------------------------------*- C++ -*----------------------------------*\
| =========                 |                                                 |
| \\      /  F ield         | OpenFOAM: The Open Source CFD Toolbox           |
|  \\    /   O peration     | Version:  v2012                                 |
|   \\  /    A nd           | Website:  www.openfoam.com                      |
|    \\/     M anipulation  |                                                 |
\*---------------------------------------------------------------------------*/
FoamFile
{
    version     2.0;
    format      ascii;
    class       volVectorField;
    location    "0.017";
    object      U;
}
// * * * * * * * * * * * * * * * * * * * * * * * * * * * * * * * * * * * * * //

dimensions      [0 1 -1 0 0 0 0];


internalField   nonuniform List<vector> 
1000
(
(-0.05744227031124747 0 0)
(-0.08273035845815714 0 0)
(-0.08654567916116274 0 0)
(-0.1072938445323701 0 0)
(-0.1089758063561237 0 0)
(-0.1188756406391439 0 0)
(-0.1277026176371833 0 0)
(-0.1281999307784552 0 0)
(-0.1302235837972433 0 0)
(-0.1287711266312303 0 0)
(-0.1258095126322939 0 0)
(-0.1187397534816141 0 0)
(-0.1120911266970158 0 0)
(-0.1022317618531687 0 0)
(-0.09104059848472373 0 0)
(-0.07522941166951233 0 0)
(-0.063827872488203 0 0)
(-0.04544939542299654 0 0)
(-0.02480850123999744 0 0)
(-0.01185926208963933 0 0)
(0.007775656740948184 0 0)
(0.02596383514859535 0 0)
(0.04222609729464853 0 0)
(0.05871899627948979 0 0)
(0.0743097683375169 0 0)
(0.08781604982525862 0 0)
(0.09961086698896915 0 0)
(0.1106765577740204 0 0)
(0.1187797479790424 0 0)
(0.1241073988144549 0 0)
(0.1264147265464446 0 0)
(0.1258740831380736 0 0)
(0.1267137972809863 0 0)
(0.1211142238691076 0 0)
(0.1153415358836174 0 0)
(0.1092877139836371 0 0)
(0.09976819787994376 0 0)
(0.09135812937922916 0 0)
(0.07900657201195425 0 0)
(0.06389850959128683 0 0)
(0.05081125716751615 0 0)
(0.03209168041716549 0 0)
(0.01486093383609924 0 0)
(-0.001631920881830496 0 0)
(-0.02077867421646835 0 0)
(-0.03704444877347262 0 0)
(-0.05437569010752583 0 0)
(-0.0696814713900169 0 0)
(-0.08413861411656622 0 0)
(-0.09858110289287468 0 0)
(-0.1101658503757443 0 0)
(-0.1189319167031591 0 0)
(-0.1277320105094713 0 0)
(-0.1331855898698091 0 0)
(-0.1332357858657578 0 0)
(-0.1321638950659887 0 0)
(-0.1278292304443863 0 0)
(-0.1227656555580028 0 0)
(-0.1140947360516464 0 0)
(-0.1069882614750764 0 0)
(-0.09495739285376413 0 0)
(-0.08605026739884608 0 0)
(-0.07168938915088936 0 0)
(-0.05495828932209011 0 0)
(-0.04061653388005165 0 0)
(-0.02166697325442584 0 0)
(-0.003876797805977013 0 0)
(0.01414026054443468 0 0)
(0.03286209198070581 0 0)
(0.04979099466922568 0 0)
(0.065714444386705 0 0)
(0.07961591286129802 0 0)
(0.09242685786132425 0 0)
(0.1038024845651534 0 0)
(0.1129336780518484 0 0)
(0.1213894071030335 0 0)
(0.1249566397083367 0 0)
(0.1255840977767984 0 0)
(0.1243794559606284 0 0)
(0.1204175491922601 0 0)
(0.1144981682006054 0 0)
(0.1077650659463564 0 0)
(0.1000704731914586 0 0)
(0.09337326843933239 0 0)
(0.08113107462017945 0 0)
(0.06991134125777322 0 0)
(0.05917003889354158 0 0)
(0.04109989338262977 0 0)
(0.02593547833775327 0 0)
(0.009445799702466362 0 0)
(-0.009726409229198591 0 0)
(-0.02644944685998955 0 0)
(-0.0452588019346174 0 0)
(-0.06037007508107161 0 0)
(-0.07583004003257092 0 0)
(-0.09110334774390154 0 0)
(-0.1021297900229868 0 0)
(-0.1100503397393641 0 0)
(-0.1225814505034358 0 0)
(-0.1275725706035814 0 0)
(-0.1270803063372443 0 0)
(-0.1287074941973382 0 0)
(-0.124602381209362 0 0)
(-0.1178057686185127 0 0)
(-0.1118575759772718 0 0)
(-0.1033286960974709 0 0)
(-0.0922539687197895 0 0)
(-0.08340081559218993 0 0)
(-0.07077277411902078 0 0)
(-0.05488560300053848 0 0)
(-0.04264026302008124 0 0)
(-0.02450517854035699 0 0)
(-0.006991190351254738 0 0)
(0.008940800535001479 0 0)
(0.02845725650084804 0 0)
(0.04617121085419982 0 0)
(0.06258546901404859 0 0)
(0.07758578840329444 0 0)
(0.09205486932176719 0 0)
(0.104033332337564 0 0)
(0.1126599657693349 0 0)
(0.1214000544350546 0 0)
(0.1263985378125903 0 0)
(0.1281394003803385 0 0)
(0.1260279255991477 0 0)
(0.1236574580465829 0 0)
(0.1173062720600414 0 0)
(0.1109651970078235 0 0)
(0.1033877309292702 0 0)
(0.09617408641016738 0 0)
(0.08673047800867836 0 0)
(0.0738902995745367 0 0)
(0.06449849396331586 0 0)
(0.05049473314736697 0 0)
(0.03309364572038644 0 0)
(0.01999269767690075 0 0)
(0.002192537508485703 0 0)
(-0.0165567888284995 0 0)
(-0.03363651634126672 0 0)
(-0.05083492507813384 0 0)
(-0.06735255871512723 0 0)
(-0.08262058908316061 0 0)
(-0.09565944432617225 0 0)
(-0.1072610912518464 0 0)
(-0.1164226729881525 0 0)
(-0.1227537742707202 0 0)
(-0.1246719755213815 0 0)
(-0.123967764751904 0 0)
(-0.1206490391235654 0 0)
(-0.1165316092126803 0 0)
(-0.1069371024688859 0 0)
(-0.1010623013697366 0 0)
(-0.0901800374842906 0 0)
(-0.08036833619031622 0 0)
(-0.06921071875539823 0 0)
(-0.05370735790103977 0 0)
(-0.0414593200595087 0 0)
(-0.02509584576139574 0 0)
(-0.006795158473338926 0 0)
(0.007021284901508341 0 0)
(0.02615059686596389 0 0)
(0.04455901152222085 0 0)
(0.05921460682605503 0 0)
(0.07656459149232739 0 0)
(0.09134943902419465 0 0)
(0.1040963517543317 0 0)
(0.114786824612995 0 0)
(0.1250500694284881 0 0)
(0.1313174733932472 0 0)
(0.1317720377910707 0 0)
(0.1319791436992203 0 0)
(0.1292331191717169 0 0)
(0.1241031859320029 0 0)
(0.1170779096231203 0 0)
(0.110291680866714 0 0)
(0.1034254158464956 0 0)
(0.09440357733266018 0 0)
(0.08286198958071597 0 0)
(0.07394059516012597 0 0)
(0.0604958158006462 0 0)
(0.04493849089058813 0 0)
(0.03203036044009456 0 0)
(0.01648835023902667 0 0)
(-0.001766424277669449 0 0)
(-0.01802932648764947 0 0)
(-0.03450848496770327 0 0)
(-0.05314916534017643 0 0)
(-0.06755740312996747 0 0)
(-0.08254061797294908 0 0)
(-0.09643936257217403 0 0)
(-0.1065959283131791 0 0)
(-0.1151493647845225 0 0)
(-0.1191980293370024 0 0)
(-0.1197313910583914 0 0)
(-0.1166415418329897 0 0)
(-0.113056995487955 0 0)
(-0.1046027039754251 0 0)
(-0.09771108948295699 0 0)
(-0.08677913690191666 0 0)
(-0.07839997303723056 0 0)
(-0.06738075606560966 0 0)
(-0.05144712370678207 0 0)
(-0.04164017638621522 0 0)
(-0.0255718744385801 0 0)
(-0.007193403670191476 0 0)
(0.005703128698007014 0 0)
(0.02451927002698747 0 0)
(0.04207885558811553 0 0)
(0.05668137527954664 0 0)
(0.07426883752192433 0 0)
(0.0900842596384008 0 0)
(0.1019328229931829 0 0)
(0.1165693426685387 0 0)
(0.1262174333549783 0 0)
(0.1341456091235071 0 0)
(0.1383510234847889 0 0)
(0.1379708401490196 0 0)
(0.1356589102319331 0 0)
(0.1318968377490901 0 0)
(0.1243199037797646 0 0)
(0.1169582805858798 0 0)
(0.1094126400363555 0 0)
(0.1010485641800052 0 0)
(0.09020007962477468 0 0)
(0.08148169032729445 0 0)
(0.07000559926837299 0 0)
(0.05537942019653422 0 0)
(0.04349935892225185 0 0)
(0.02891579211524067 0 0)
(0.01253971580198718 0 0)
(-0.003244497535103883 0 0)
(-0.01971902099788408 0 0)
(-0.03615525485451426 0 0)
(-0.05196533711171984 0 0)
(-0.06820973927170744 0 0)
(-0.08255636830109477 0 0)
(-0.0928346702890768 0 0)
(-0.1043379364309766 0 0)
(-0.1110713792137301 0 0)
(-0.1114384281445232 0 0)
(-0.1092056601526519 0 0)
(-0.1057408851732197 0 0)
(-0.0988936810039 0 0)
(-0.09100179786162908 0 0)
(-0.08125040905476363 0 0)
(-0.07085560026566759 0 0)
(-0.06136469725875627 0 0)
(-0.04679922518114154 0 0)
(-0.03327247094796475 0 0)
(-0.02103506366642151 0 0)
(-0.00415490699675386 0 0)
(0.01188320033331245 0 0)
(0.02702266928706248 0 0)
(0.0439642019174934 0 0)
(0.06073839825087207 0 0)
(0.07743556071841279 0 0)
(0.09149281864073533 0 0)
(0.1072341074927096 0 0)
(0.1202287894094243 0 0)
(0.1296268724181497 0 0)
(0.1403237837265965 0 0)
(0.1465636156616141 0 0)
(0.1477624119882082 0 0)
(0.1442718056049509 0 0)
(0.1418736113898214 0 0)
(0.1348368676143463 0 0)
(0.1277382164744665 0 0)
(0.1196939970674955 0 0)
(0.1121605914884584 0 0)
(0.1004261305008354 0 0)
(0.0916936452796938 0 0)
(0.0809130036360808 0 0)
(0.06676856283344081 0 0)
(0.05566833440450977 0 0)
(0.04163818841299525 0 0)
(0.02673911728786186 0 0)
(0.01141422691284344 0 0)
(-0.005433938961672308 0 0)
(-0.02051618373076892 0 0)
(-0.03743221493469566 0 0)
(-0.05235823413167402 0 0)
(-0.06701900961296463 0 0)
(-0.08018182252200981 0 0)
(-0.0914243836112998 0 0)
(-0.1004579292765415 0 0)
(-0.1027775967867146 0 0)
(-0.1027172101268106 0 0)
(-0.1000475520212674 0 0)
(-0.09373395902711754 0 0)
(-0.08598634181370507 0 0)
(-0.07750632767918335 0 0)
(-0.06593869470959841 0 0)
(-0.05569473584536437 0 0)
(-0.04336627870554319 0 0)
(-0.02804869721636708 0 0)
(-0.01589445471889373 0 0)
(-0.0001307030346831135 0 0)
(0.01606812075276372 0 0)
(0.03058450890768082 0 0)
(0.04729865075949368 0 0)
(0.06409730182144659 0 0)
(0.07912678856496708 0 0)
(0.09428327933662668 0 0)
(0.1092470814745566 0 0)
(0.1225104078433518 0 0)
(0.1345770965397967 0 0)
(0.1450630934095116 0 0)
(0.1532855727024661 0 0)
(0.1570469391016285 0 0)
(0.1546568186084915 0 0)
(0.1538845664824081 0 0)
(0.1477909579505781 0 0)
(0.1401433271932113 0 0)
(0.1315822475178429 0 0)
(0.124148636126257 0 0)
(0.1150720913805515 0 0)
(0.1026976628762512 0 0)
(0.0937102760724325 0 0)
(0.08117086079961991 0 0)
(0.06554990149222505 0 0)
(0.05555395221051977 0 0)
(0.04087946313344545 0 0)
(0.02373708066809077 0 0)
(0.01076167473818927 0 0)
(-0.005488563991530143 0 0)
(-0.02239795028812492 0 0)
(-0.03656548015396496 0 0)
(-0.05257407299008211 0 0)
(-0.06672347880388664 0 0)
(-0.07728912247200276 0 0)
(-0.09060935039153359 0 0)
(-0.09562501133693349 0 0)
(-0.09679669351932745 0 0)
(-0.09575109214142787 0 0)
(-0.09118298152625867 0 0)
(-0.08386322512770639 0 0)
(-0.07675043080825235 0 0)
(-0.06478864574492718 0 0)
(-0.05452255387028879 0 0)
(-0.04377047089826124 0 0)
(-0.0264756665897869 0 0)
(-0.01538643262796639 0 0)
(-0.0002780087576919872 0 0)
(0.01813673889298367 0 0)
(0.03220132543021207 0 0)
(0.04797204799804999 0 0)
(0.06479834097813716 0 0)
(0.08127467007433208 0 0)
(0.09563940470093998 0 0)
(0.1103561139847594 0 0)
(0.1250543850655222 0 0)
(0.1383672540825004 0 0)
(0.1473842146518161 0 0)
(0.1591892997903848 0 0)
(0.1653246375886942 0 0)
(0.1664025023830145 0 0)
(0.166210957275272 0 0)
(0.1621777222078916 0 0)
(0.1563106026307566 0 0)
(0.1490964727737889 0 0)
(0.1410252743975507 0 0)
(0.1325461523312708 0 0)
(0.123540292993644 0 0)
(0.1131731834099291 0 0)
(0.1021689430579535 0 0)
(0.09142076478495152 0 0)
(0.07945968202514175 0 0)
(0.0669930601335964 0 0)
(0.0554852577821011 0 0)
(0.04045612636881181 0 0)
(0.02693249390054936 0 0)
(0.01429993088344764 0 0)
(-0.001432326753094771 0 0)
(-0.01416728752140086 0 0)
(-0.02716971506502468 0 0)
(-0.03960679484451061 0 0)
(-0.04903785964851163 0 0)
(-0.05941913019806776 0 0)
(-0.0634121260902212 0 0)
(-0.06525946076790749 0 0)
(-0.06164155682222206 0 0)
(-0.05936960590328323 0 0)
(-0.05223348530348779 0 0)
(-0.04416460364456035 0 0)
(-0.03481403041552587 0 0)
(-0.02473912240612205 0 0)
(-0.01527240847068354 0 0)
(-0.003065328972303378 0 0)
(0.01041970222929922 0 0)
(0.02175306343497987 0 0)
(0.03467137402017131 0 0)
(0.04708452800489258 0 0)
(0.05924733751821678 0 0)
(0.07144831123364309 0 0)
(0.08261217273317911 0 0)
(0.09417538537003792 0 0)
(0.1038337728522375 0 0)
(0.1138366024863827 0 0)
(0.1231408890505123 0 0)
(0.1294255307139239 0 0)
(0.1361868933978639 0 0)
(0.1411070121990275 0 0)
(0.1410704416976448 0 0)
(0.1402477112245377 0 0)
(0.1382781887676638 0 0)
(0.1336065992024732 0 0)
(0.1274284065306977 0 0)
(0.1207795176215975 0 0)
(0.113918715471303 0 0)
(0.1069116745307591 0 0)
(0.09744881148125013 0 0)
(0.08944341175331562 0 0)
(0.08114053937750754 0 0)
(0.07002637038033907 0 0)
(0.0609078095995193 0 0)
(0.05116763948904372 0 0)
(0.03877957805303705 0 0)
(0.028227794451475 0 0)
(0.01725115008739635 0 0)
(0.005022641631300204 0 0)
(-0.005907851847759948 0 0)
(-0.01750234331891238 0 0)
(-0.02820201220065362 0 0)
(-0.03642732077421386 0 0)
(-0.04583595936989611 0 0)
(-0.0499032165030201 0 0)
(-0.05041660623493747 0 0)
(-0.04877969760705561 0 0)
(-0.04586801590825603 0 0)
(-0.03953028732637075 0 0)
(-0.03177141232498857 0 0)
(-0.0227461025579115 0 0)
(-0.01277941986663528 0 0)
(-0.002948197844997728 0 0)
(0.009800431690548018 0 0)
(0.02240282475830692 0 0)
(0.03463634279913846 0 0)
(0.04853538784866532 0 0)
(0.05985412065753128 0 0)
(0.07208412023552846 0 0)
(0.08471266058878334 0 0)
(0.09385086846171928 0 0)
(0.1046756400772621 0 0)
(0.1155866523259374 0 0)
(0.1212912032662403 0 0)
(0.1313681957422189 0 0)
(0.1377173356408991 0 0)
(0.1419154226344506 0 0)
(0.1455862184041553 0 0)
(0.1453007223276535 0 0)
(0.1447507687805791 0 0)
(0.1417197174329425 0 0)
(0.1364719537603973 0 0)
(0.1299960203673925 0 0)
(0.1242020975227798 0 0)
(0.1180285145642209 0 0)
(0.1097705455531558 0 0)
(0.1006945023626846 0 0)
(0.09333523425923047 0 0)
(0.08239320402817495 0 0)
(0.0727171913179341 0 0)
(0.06414521123030292 0 0)
(0.05160331669776338 0 0)
(0.04235536304237422 0 0)
(0.03128195244822986 0 0)
(0.02032522043491863 0 0)
(0.009940251093267478 0 0)
(-0.001718355992231628 0 0)
(-0.01104808166050312 0 0)
(-0.01929728163801308 0 0)
(-0.02885832496729042 0 0)
(-0.033606840902426 0 0)
(-0.03553074922831113 0 0)
(-0.03526538445349679 0 0)
(-0.03344486457579294 0 0)
(-0.02866797423834224 0 0)
(-0.02138964341314639 0 0)
(-0.01421385020799957 0 0)
(-0.003306267359170215 0 0)
(0.005761521750393468 0 0)
(0.01703736852764894 0 0)
(0.03191101065092129 0 0)
(0.04113309233431631 0 0)
(0.05451356437678644 0 0)
(0.06988890662475164 0 0)
(0.0794026556263398 0 0)
(0.09195331932285977 0 0)
(0.1052552193468194 0 0)
(0.114275271132112 0 0)
(0.1237874754221371 0 0)
(0.133145768928106 0 0)
(0.1410585065834516 0 0)
(0.1463615405710177 0 0)
(0.1531236453360902 0 0)
(0.1580230561100355 0 0)
(0.1584571864611703 0 0)
(0.1588586662500343 0 0)
(0.1569483987623883 0 0)
(0.1532391870716778 0 0)
(0.1472328580282457 0 0)
(0.142041522545665 0 0)
(0.1348573884003186 0 0)
(0.1271012560795023 0 0)
(0.1193467999304885 0 0)
(0.1090928331377206 0 0)
(0.09961352249735646 0 0)
(0.09098165739255649 0 0)
(0.07872104772445677 0 0)
(0.0688954101863066 0 0)
(0.05901909407150054 0 0)
(0.04655567716901094 0 0)
(0.03645964710185332 0 0)
(0.02537870045042564 0 0)
(0.01498353603937234 0 0)
(0.006292948794501644 0 0)
(-0.005349303358248034 0 0)
(-0.01157215186621973 0 0)
(-0.01854788087005481 0 0)
(-0.02284754053515189 0 0)
(-0.02141566895293391 0 0)
(-0.02252003633135199 0 0)
(-0.01809779571993895 0 0)
(-0.01261612623856847 0 0)
(-0.005005927074882548 0 0)
(0.003532014779798979 0 0)
(0.01190196632239556 0 0)
(0.02317344180597175 0 0)
(0.03622239208312646 0 0)
(0.04675451744063067 0 0)
(0.0599778660360986 0 0)
(0.07430532825055004 0 0)
(0.08517117665108673 0 0)
(0.0984332469559802 0 0)
(0.1107961258371915 0 0)
(0.1201643160206135 0 0)
(0.1313842938149259 0 0)
(0.1409869363310883 0 0)
(0.1479475626897422 0 0)
(0.1562039912722964 0 0)
(0.1617721831224823 0 0)
(0.1673269099417151 0 0)
(0.1699382566100761 0 0)
(0.1691564219000435 0 0)
(0.1703251779878164 0 0)
(0.1672966663917042 0 0)
(0.1616231141849178 0 0)
(0.1569506532600635 0 0)
(0.1507911388520617 0 0)
(0.1434826679858808 0 0)
(0.136156109028481 0 0)
(0.1269799710355545 0 0)
(0.1170376607506634 0 0)
(0.1063718371387854 0 0)
(0.09557892531369092 0 0)
(0.08412040657652969 0 0)
(0.07245695310457376 0 0)
(0.0618877825886982 0 0)
(0.0491385501884777 0 0)
(0.03896848222631288 0 0)
(0.02935170227485645 0 0)
(0.01743658327694133 0 0)
(0.009170588430088415 0 0)
(0.002594752125223896 0 0)
(-0.007616555938600002 0 0)
(-0.01185161253209559 0 0)
(-0.01226527521453 0 0)
(-0.01398257566101553 0 0)
(-0.0115248789298597 0 0)
(-0.007065066196357823 0 0)
(-0.001383978252130854 0 0)
(0.005128609814920408 0 0)
(0.01462939893987225 0 0)
(0.0236914903004111 0 0)
(0.03466401169524702 0 0)
(0.04849926838701453 0 0)
(0.05884229423821283 0 0)
(0.07327726477096227 0 0)
(0.08790668842844233 0 0)
(0.09844487738299039 0 0)
(0.1120316732113113 0 0)
(0.1243331809645584 0 0)
(0.1332959746021008 0 0)
(0.1429590144970912 0 0)
(0.1516147163196929 0 0)
(0.1583419309698327 0 0)
(0.163631340634485 0 0)
(0.1686429134488478 0 0)
(0.171813905741222 0 0)
(0.1722907705876118 0 0)
(0.1719893736500063 0 0)
(0.170328395855181 0 0)
(0.1662719752851959 0 0)
(0.1609802983783896 0 0)
(0.1559472298406056 0 0)
(0.1493227609010116 0 0)
(0.1433025261528517 0 0)
(0.1356904000143322 0 0)
(0.1256238493823539 0 0)
(0.1176267677486108 0 0)
(0.1072946622913181 0 0)
(0.09492289256393106 0 0)
(0.08552819069066921 0 0)
(0.07421247675286249 0 0)
(0.06172482046818531 0 0)
(0.05200176143777673 0 0)
(0.04137760572253533 0 0)
(0.03125731605626205 0 0)
(0.02321591222830485 0 0)
(0.01311042318291875 0 0)
(0.007445606117349915 0 0)
(0.001115697482246132 0 0)
(-0.001767515405265975 0 0)
(-0.001235661170809889 0 0)
(-0.002220330961370795 0 0)
(0.001694895400923219 0 0)
(0.006670517862509325 0 0)
(0.01335061851938295 0 0)
(0.02133785064075817 0 0)
(0.03009762252866496 0 0)
(0.0400065542792134 0 0)
(0.05269019522822185 0 0)
(0.06444405994473909 0 0)
(0.07691388722419146 0 0)
(0.09209542113208533 0 0)
(0.1037427996534352 0 0)
(0.1158513724058555 0 0)
(0.1292193048873639 0 0)
(0.1386500940862674 0 0)
(0.1488956271204481 0 0)
(0.1588979594532175 0 0)
(0.1654003628328011 0 0)
(0.1709629498041836 0 0)
(0.1788160179401878 0 0)
(0.1814355841281879 0 0)
(0.1824187148502662 0 0)
(0.1834932301302069 0 0)
(0.1825587687728705 0 0)
(0.1791509447025749 0 0)
(0.175303412198613 0 0)
(0.1690131639122287 0 0)
(0.1647599500491953 0 0)
(0.1583086917560603 0 0)
(0.1500573510155821 0 0)
(0.1418293703834513 0 0)
(0.1322241173969926 0 0)
(0.1220694878421352 0 0)
(0.1106171016596478 0 0)
(0.09911470986279973 0 0)
(0.08764449741776244 0 0)
(0.07520007908090819 0 0)
(0.06293980932858326 0 0)
(0.05158859594145165 0 0)
(0.04132200543641593 0 0)
(0.03161224849582338 0 0)
(0.02284933810100578 0 0)
(0.0159849348618011 0 0)
(0.008469788474568774 0 0)
(0.00516077927956377 0 0)
(0.004317813194967544 0 0)
(0.004989595938276639 0 0)
(0.006431127413935228 0 0)
(0.01086083649115415 0 0)
(0.01691029341929014 0 0)
(0.02285810018096773 0 0)
(0.03192490653525343 0 0)
(0.04062088744421595 0 0)
(0.05048077717326634 0 0)
(0.06461403827213842 0 0)
(0.07440810857151781 0 0)
(0.0871501012721707 0 0)
(0.1021434949629224 0 0)
(0.1131577027028016 0 0)
(0.1247057520002528 0 0)
(0.1373983674145901 0 0)
(0.1478977273679672 0 0)
(0.156398810390314 0 0)
(0.1655758039684381 0 0)
(0.1731351353613112 0 0)
(0.1780009727751714 0 0)
(0.1845593526426877 0 0)
(0.1881156897408747 0 0)
(0.1877565621397865 0 0)
(0.1875159166345927 0 0)
(0.1860347291077584 0 0)
(0.1817387229076596 0 0)
(0.1760298673648415 0 0)
(0.1718342198683165 0 0)
(0.1642120266375804 0 0)
(0.1580482908560429 0 0)
(0.149910302216289 0 0)
(0.139252398360769 0 0)
(0.1300322390691413 0 0)
(0.1166168708893629 0 0)
(0.1059113501327583 0 0)
(0.09385532695758109 0 0)
(0.07967629862251917 0 0)
(0.06770630614444921 0 0)
(0.05511951891819607 0 0)
(0.04363779181668066 0 0)
(0.03315608967624781 0 0)
(0.02427842374257445 0 0)
(0.01565391511441495 0 0)
(0.008324155337770511 0 0)
(0.004453236657300735 0 0)
(0.002298491400973531 0 0)
(0.003257589251680452 0 0)
(0.003743669840478712 0 0)
(0.007618648638721183 0 0)
(0.01228381383646359 0 0)
(0.01814561794980524 0 0)
(0.02516751532762119 0 0)
(0.03259794401937718 0 0)
(0.04242765650672722 0 0)
(0.05459247768045625 0 0)
(0.06469001589268708 0 0)
(0.07782744053100396 0 0)
(0.09251213132272232 0 0)
(0.1038644331535274 0 0)
(0.1169759924990348 0 0)
(0.1305835426050012 0 0)
(0.1408442104840777 0 0)
(0.1506397827599366 0 0)
(0.1603758289210968 0 0)
(0.1677109551890458 0 0)
(0.1727038366110031 0 0)
(0.1780792813417711 0 0)
(0.181039718423371 0 0)
(0.1814494752097416 0 0)
(0.1816734502525534 0 0)
(0.1789818914469447 0 0)
(0.1752637846268449 0 0)
(0.1699683161132943 0 0)
(0.1651054917895757 0 0)
(0.1584862556462601 0 0)
(0.1525312849306418 0 0)
(0.1444290663548737 0 0)
(0.1350195677151579 0 0)
(0.1249042066196795 0 0)
(0.1149973382427449 0 0)
(0.1036638594155625 0 0)
(0.0915472074290635 0 0)
(0.07994421643972682 0 0)
(0.06735320928322434 0 0)
(0.05465701754753857 0 0)
(0.04240559336068953 0 0)
(0.03232307754398648 0 0)
(0.02102793457110137 0 0)
(0.01240633977499421 0 0)
(0.00588394004614924 0 0)
(0.0002161275006027395 0 0)
(-0.002078183643935948 0 0)
(-0.002897225148379021 0 0)
(0.0004389224750863414 0 0)
(0.002125574691666775 0 0)
(0.00792509947873468 0 0)
(0.01327431956364259 0 0)
(0.02081078852949547 0 0)
(0.02777750328576125 0 0)
(0.03503445498129257 0 0)
(0.04614871111888925 0 0)
(0.05538163489947302 0 0)
(0.06630103576975847 0 0)
(0.08129152694294708 0 0)
(0.0926739882587526 0 0)
(0.1062920135300093 0 0)
(0.1207051984344133 0 0)
(0.1323751917446562 0 0)
(0.1445632040199208 0 0)
(0.1542101785674024 0 0)
(0.1631057240121298 0 0)
(0.1704348837026546 0 0)
(0.1748937198224144 0 0)
(0.1785290315070752 0 0)
(0.1797517673748461 0 0)
(0.1791198595603596 0 0)
(0.177029422727745 0 0)
(0.173025852096005 0 0)
(0.1687361886769419 0 0)
(0.162748609815406 0 0)
(0.1576223893834692 0 0)
(0.1512367856126958 0 0)
(0.1452351689221339 0 0)
(0.1377876415444596 0 0)
(0.1285726558407918 0 0)
(0.1206572109543683 0 0)
(0.1105570334725237 0 0)
(0.09966468145562606 0 0)
(0.08883457236755633 0 0)
(0.0775782631282653 0 0)
(0.06568079705811863 0 0)
(0.05428422733856507 0 0)
(0.04338570067543075 0 0)
(0.03286728947526112 0 0)
(0.02386205855877178 0 0)
(0.01594317858652996 0 0)
(0.00856667114088535 0 0)
(0.005128970166316538 0 0)
(0.00528485805704502 0 0)
(0.005747238265879049 0 0)
(0.007380600866508614 0 0)
(0.0135407327048373 0 0)
(0.01878837575338194 0 0)
(0.0250713878574368 0 0)
(0.03342096771151934 0 0)
(0.039980432156606 0 0)
(0.04829977954880457 0 0)
(0.06017249142337944 0 0)
(0.06867409660119099 0 0)
(0.0810118013998893 0 0)
(0.09492841528579683 0 0)
(0.1059935476520456 0 0)
(0.1199250222706732 0 0)
(0.1331502132535156 0 0)
(0.1442693957792779 0 0)
(0.1551916504820584 0 0)
(0.1644027421228715 0 0)
(0.1720190626825419 0 0)
(0.1776263723178105 0 0)
(0.1821846545016854 0 0)
(0.1853968442125019 0 0)
(0.1854457413326952 0 0)
(0.1835810569040519 0 0)
(0.1814746232765151 0 0)
(0.1773181077488814 0 0)
(0.1718923310732388 0 0)
(0.1666701558709528 0 0)
(0.1618206634947148 0 0)
(0.1545023998648174 0 0)
(0.1474795608482748 0 0)
(0.1388761796886908 0 0)
(0.1295555426172044 0 0)
(0.1198568610696774 0 0)
(0.1079708579580546 0 0)
(0.09696967906998318 0 0)
(0.08511963866861164 0 0)
(0.07161520167454111 0 0)
(0.0602038155195654 0 0)
(0.0484287127529333 0 0)
(0.03719433357379654 0 0)
(0.02864836684020699 0 0)
(0.01933804623651822 0 0)
(0.01162146216786489 0 0)
(0.006665118252232804 0 0)
(0.00535541557052659 0 0)
(0.004930669922795723 0 0)
(0.006637968247490404 0 0)
(0.01015799224371253 0 0)
(0.0161279243351245 0 0)
(0.02255772719857229 0 0)
(0.03066077974245021 0 0)
(0.03758210664395698 0 0)
(0.04750579721497956 0 0)
(0.05665068744567574 0 0)
(0.06430962907782409 0 0)
(0.07783891534370985 0 0)
(0.08820101301918334 0 0)
(0.09764778436580117 0 0)
(0.1116741189621475 0 0)
(0.1234977770817185 0 0)
(0.1358447466947009 0 0)
(0.148863281097793 0 0)
(0.1590276515357466 0 0)
(0.1688986606619836 0 0)
(0.1765213295338602 0 0)
(0.181669418092982 0 0)
(0.1853579586086018 0 0)
(0.1847889865707361 0 0)
(0.1830211613001778 0 0)
(0.179553598487674 0 0)
(0.173839874289779 0 0)
(0.1695338834474451 0 0)
(0.1625880913808442 0 0)
(0.1570851890837523 0 0)
(0.1502600929510552 0 0)
(0.1443946448061467 0 0)
(0.1360099812127924 0 0)
(0.1268324312749906 0 0)
(0.1194466957770807 0 0)
(0.1082891595196938 0 0)
(0.09702611216371894 0 0)
(0.08728185020015042 0 0)
(0.07429285243257971 0 0)
(0.06257149983873198 0 0)
(0.050981367233861 0 0)
(0.04022670347052004 0 0)
(0.03108772656227586 0 0)
(0.01980262757847348 0 0)
(0.01401718486819966 0 0)
(0.0077193546659129 0 0)
(0.004364444672906947 0 0)
(0.004559556385683452 0 0)
(0.006181543837222037 0 0)
(0.008503996887920768 0 0)
(0.01275258705706045 0 0)
(0.0193973489355961 0 0)
(0.02634357959960067 0 0)
(0.03346571290670656 0 0)
(0.04212369395798346 0 0)
(0.05226205710759024 0 0)
(0.06156550472170794 0 0)
(0.07340012679127855 0 0)
(0.084763855466034 0 0)
(0.095624577179906 0 0)
(0.1067749156876037 0 0)
(0.1178767699245259 0 0)
(0.1293337396499535 0 0)
(0.1400414585479187 0 0)
(0.1507178784021976 0 0)
(0.1614678760601581 0 0)
(0.1701847374267242 0 0)
(0.1783099866823694 0 0)
(0.1853107134885648 0 0)
(0.1882122119992485 0 0)
(0.1877476128906978 0 0)
(0.1838223611809394 0 0)
(0.1789841962680662 0 0)
(0.1735359765845602 0 0)
(0.1650387670128203 0 0)
(0.1566162581420246 0 0)
(0.1497103507561126 0 0)
(0.1425255816520655 0 0)
(0.1360450099985233 0 0)
(0.1298676437350672 0 0)
(0.1222648934968787 0 0)
(0.1137374156218852 0 0)
(0.1054574898575163 0 0)
(0.09709588861365502 0 0)
(0.08612710502666948 0 0)
(0.07559080664035113 0 0)
(0.0649071822961592 0 0)
(0.05494374368355241 0 0)
(0.04429111802344601 0 0)
(0.03452289401506919 0 0)
(0.02747439285435174 0 0)
(0.01918627748927284 0 0)
(0.01431499732676984 0 0)
(0.01409516093630529 0 0)
(0.01493325873374055 0 0)
(0.01575438856426843 0 0)
(0.01969030753578137 0 0)
(0.02502439695053069 0 0)
(0.0327058447131314 0 0)
(0.03936933164261308 0 0)
(0.04710341826581069 0 0)
(0.05701386296722325 0 0)
(0.06493767328077012 0 0)
(0.07628714842857777 0 0)
(0.08731193458419843 0 0)
(0.09762887473954709 0 0)
(0.1102073932735562 0 0)
(0.1216249657136514 0 0)
(0.1329165483900308 0 0)
(0.1443322896845272 0 0)
(0.1539049673431268 0 0)
(0.1637378451726215 0 0)
(0.1722405628029099 0 0)
(0.1769114622271503 0 0)
(0.1841942687513269 0 0)
(0.1897412988142835 0 0)
(0.1916219569186989 0 0)
(0.1922213255778218 0 0)
(0.1901142106367788 0 0)
(0.1849256622536149 0 0)
(0.1781919162285599 0 0)
(0.167551778098229 0 0)
(0.1585795475058237 0 0)
(0.1494246382541156 0 0)
(0.1437743959970742 0 0)
(0.1379884434002098 0 0)
(0.1305146002213528 0 0)
(0.1247338943541734 0 0)
(0.1161965899186263 0 0)
(0.1041781822870253 0 0)
(0.09427289672428366 0 0)
(0.08190498628208011 0 0)
(0.06870959359145914 0 0)
(0.05734425975745625 0 0)
(0.04632217059495639 0 0)
(0.03808783227651525 0 0)
(0.02709449235280056 0 0)
(0.02132969961682583 0 0)
(0.01585256157065307 0 0)
(0.01394603688769151 0 0)
(0.01369838583212111 0 0)
(0.01481610906020001 0 0)
(0.01836133650526755 0 0)
(0.02442522659288398 0 0)
(0.02901116812343192 0 0)
(0.03724110267976932 0 0)
(0.0443727563435086 0 0)
(0.05191736173157806 0 0)
(0.06258469680197302 0 0)
(0.07122990989301145 0 0)
(0.08173072863371696 0 0)
(0.09508747463267589 0 0)
(0.1050045298554408 0 0)
(0.1145590450933804 0 0)
(0.1296088294807185 0 0)
(0.1374364343625411 0 0)
(0.153669097524148 0 0)
)
;

boundaryField
{
    inlet
    {
        type            zeroGradient;
    }
    outlet
    {
        type            pressureInletOutletVelocity;
        value           uniform (0.153669097524148 0 0);
    }
    frontAndBack
    {
        type            empty;
    }
}


// ************************************************************************* //
