/*--------------------------------*- C++ -*----------------------------------*\
| =========                 |                                                 |
| \\      /  F ield         | OpenFOAM: The Open Source CFD Toolbox           |
|  \\    /   O peration     | Version:  v2012                                 |
|   \\  /    A nd           | Website:  www.openfoam.com                      |
|    \\/     M anipulation  |                                                 |
\*---------------------------------------------------------------------------*/
FoamFile
{
    version     2.0;
    format      ascii;
    class       volScalarField;
    location    "0.008";
    object      pMean;
}
// * * * * * * * * * * * * * * * * * * * * * * * * * * * * * * * * * * * * * //

dimensions      [1 -1 -2 0 0 0 0];


internalField   nonuniform List<scalar> 
1000
(
101325.0183765046
101325.0070575163
101325.0283382661
101325.0402901616
101325.0550278164
101325.0687066594
101325.0997783573
101325.1444734285
101325.2085299106
101325.2502334896
101325.292513534
101325.3406111383
101325.3637061296
101325.4069089231
101325.4625922682
101325.4934223152
101325.5250880634
101325.595012157
101325.6198191743
101325.6190554297
101325.6375385599
101325.6677831576
101325.6736183926
101325.6642189347
101325.6579963053
101325.6708347105
101325.6446489427
101325.6209672649
101325.5983771335
101325.574313523
101325.5239265324
101325.4572528766
101325.4303074323
101325.3966677641
101325.3408668032
101325.3083044368
101325.2691653108
101325.2342854498
101325.1634780133
101325.1207331142
101325.0934945523
101325.0699614066
101325.0479811155
101325.0338688287
101325.0111639947
101324.9941273015
101324.9820417195
101324.98278657
101325.007263799
101325.0206435041
101325.0643572736
101325.0824769166
101325.0995125584
101325.1430496672
101325.1797924434
101325.2016931641
101325.2712227733
101325.3168103359
101325.3854811772
101325.4118128779
101325.4745520738
101325.5052011656
101325.5205135502
101325.5647988692
101325.6179289235
101325.6445954587
101325.6548652657
101325.702284514
101325.7104416693
101325.6853057491
101325.6699417801
101325.6901812863
101325.6577393271
101325.6105527841
101325.6197532115
101325.5977031571
101325.5427170298
101325.5006305018
101325.4840911057
101325.4169947119
101325.3564638225
101325.3255235138
101325.2759037212
101325.2066939143
101325.2105425126
101325.1607483558
101325.0855188902
101325.068311834
101325.0576375266
101324.9796693812
101324.9785425569
101325.0154236238
101324.9976909572
101324.9779572232
101325.0046675032
101325.0044024345
101324.9988847277
101325.0279751846
101325.0775539859
101325.1322172744
101325.1682069474
101325.220125664
101325.2677604093
101325.3118439187
101325.3306799773
101325.3937836461
101325.4381891086
101325.4686721359
101325.533965062
101325.5795275375
101325.5932268565
101325.6310544783
101325.6675796345
101325.6577144508
101325.6832240933
101325.7146425559
101325.7259819614
101325.6877545604
101325.6885923773
101325.6633214773
101325.6267110077
101325.5959936912
101325.5670077217
101325.522193433
101325.4686098141
101325.4112317844
101325.3743383833
101325.3183181689
101325.2737813121
101325.2485329761
101325.1882362082
101325.1453330417
101325.0964453707
101325.0620493811
101325.0273454671
101324.9903047726
101324.9756682453
101324.972329315
101324.9515238922
101324.9465146225
101324.971743878
101324.9795177823
101324.9786956433
101325.0166921163
101325.0716336546
101325.0775161307
101325.1267491471
101325.2011012353
101325.2173703158
101325.259696216
101325.3173511897
101325.3671718367
101325.409095489
101325.4696131091
101325.5063087937
101325.5489986164
101325.5733789677
101325.6170842875
101325.6415618605
101325.6744925604
101325.6911679521
101325.7231868174
101325.7195050789
101325.6876743834
101325.6625083439
101325.6591425048
101325.6169682462
101325.5893628199
101325.5823405901
101325.532896397
101325.4962639226
101325.4513118865
101325.3860203573
101325.3349649957
101325.2972831582
101325.2376300097
101325.1991036953
101325.1584914507
101325.1175547146
101325.0672752486
101325.0348069141
101324.9938218338
101324.9614776111
101324.9487015135
101324.9487919281
101324.957708482
101324.967775466
101324.9755472525
101324.9997511827
101325.0108189472
101325.0321732922
101325.0833468498
101325.1340424321
101325.1696741871
101325.2226779511
101325.2811371811
101325.3198054962
101325.35639298
101325.4073094956
101325.4596410312
101325.4956152936
101325.5346556039
101325.5868299515
101325.6258135976
101325.6592115582
101325.6830095185
101325.7131537587
101325.7258652718
101325.7384915254
101325.7357377474
101325.7196140653
101325.6875988747
101325.6457428684
101325.6116889914
101325.5728135964
101325.5335543402
101325.4939365574
101325.4549651379
101325.4090069829
101325.3527031999
101325.3055489252
101325.257579862
101325.2029558463
101325.1558423228
101325.1065657767
101325.0621776074
101325.0237599443
101324.9940049187
101324.9618892592
101324.9297161563
101324.9047655068
101324.8866999972
101324.8813891832
101324.9108488535
101324.9509546962
101324.98882042
101325.026250536
101325.068831523
101325.1075444802
101325.1418815309
101325.1873689419
101325.2289291581
101325.2775423483
101325.3260460593
101325.3808471025
101325.4312904792
101325.4818438896
101325.530049694
101325.5757647866
101325.6100486467
101325.6432040303
101325.6691253459
101325.7014675373
101325.7257917983
101325.7507716425
101325.7613556254
101325.750820804
101325.7140746401
101325.6712098772
101325.6248687945
101325.5787224066
101325.5368631985
101325.4907551106
101325.4475804181
101325.4019510847
101325.360247997
101325.3132825555
101325.2676709018
101325.2161488562
101325.1713653589
101325.1195696608
101325.0746861841
101325.0222891561
101324.9808847642
101324.9341386667
101324.9080934679
101324.8927294944
101324.9058909344
101324.9160327536
101324.9368521021
101324.9500958999
101324.9758828824
101325.0003076486
101325.0432903376
101325.0847431083
101325.1343871206
101325.1757697111
101325.225654835
101325.2681537484
101325.3173293604
101325.3602235028
101325.4112571091
101325.4552180913
101325.5061901782
101325.5497001831
101325.6023814558
101325.644412757
101325.692152266
101325.7278927632
101325.7534003223
101325.746938341
101325.728786901
101325.7015251569
101325.6795910047
101325.6511663164
101325.6276828151
101325.5933995662
101325.5586115636
101325.5126893615
101325.4717285011
101325.4248168981
101325.3833695515
101325.3354441078
101325.2931932458
101325.2426117401
101325.1963734562
101325.1438170018
101325.0981954508
101325.04881344
101325.0060657754
101324.9722138861
101324.9560790493
101324.94988126
101324.9473138707
101324.9447897935
101324.9441282377
101324.9456837224
101324.959195067
101324.9904591501
101325.0336314833
101325.0788258864
101325.1236404221
101325.1695327276
101325.214056755
101325.2613681052
101325.3090434559
101325.3607137498
101325.4123642591
101325.4657807253
101325.5177515305
101325.5709161263
101325.6224471302
101325.6749233344
101325.7265318756
101325.7767178107
101325.8239684181
101325.8606469931
101325.8741654656
101325.8473077467
101325.7996191068
101325.7468954787
101325.695952523
101325.6432891056
101325.5923636747
101325.5395730402
101325.4895965761
101325.4383732804
101325.3918156372
101325.3448540175
101325.3013505715
101325.2547570754
101325.2119562073
101325.1644384622
101325.1217925966
101325.0740855364
101325.0321882696
101324.9839372976
101324.9430380304
101324.8977942346
101324.8613103379
101324.8343772006
101324.841765871
101324.8788742484
101324.9304422999
101324.9793386563
101325.031140012
101325.0803333093
101325.1311977905
101325.1790598305
101325.2262343316
101325.2700627659
101325.3139012335
101325.3573698885
101325.4010421529
101325.4454331185
101325.4890223332
101325.5336392579
101325.5773458864
101325.6226361011
101325.6648439823
101325.7079692763
101325.7481570753
101325.7773760749
101325.7842082402
101325.7585533416
101325.72330065
101325.6844276383
101325.6482439694
101325.6094217473
101325.573470359
101325.5344358265
101325.4982253313
101325.4588483961
101325.4214788298
101325.3775459058
101325.3325739101
101325.2805990126
101325.2321638995
101325.1795252029
101325.1314545027
101325.0799977176
101325.0335660443
101324.9870074497
101324.9506164121
101324.9195116179
101324.8984918421
101324.8803396407
101324.8704598675
101324.8710058965
101324.8947488765
101324.9407224447
101324.9925670767
101325.0461945068
101325.097255222
101325.1509012661
101325.200823639
101325.2542709528
101325.3015931625
101325.3544833233
101325.4004671162
101325.4525296427
101325.4920648178
101325.5357136384
101325.5632732873
101325.598612949
101325.6219001496
101325.6560389956
101325.6782674788
101325.7059520287
101325.708511797
101325.7017331456
101325.6722176762
101325.6528513506
101325.6212631899
101325.6013309083
101325.569638556
101325.546584083
101325.5067341594
101325.4702124066
101325.4198232244
101325.3795903949
101325.3290866129
101325.2886899669
101325.2389165347
101325.198171784
101325.1483832845
101325.1064359843
101325.0574284922
101325.0152665417
101324.9666844642
101324.9251328418
101324.8831271262
101324.8519221087
101324.8450191015
101324.8738316632
101324.9195253231
101324.9665210386
101325.0141195632
101325.0606603137
101325.1084218642
101325.1539465913
101325.2001246654
101325.2428671837
101325.2868323944
101325.3285062848
101325.3723537468
101325.4141224329
101325.4582622785
101325.5002015377
101325.5441181656
101325.5859408946
101325.6297568196
101325.6713370212
101325.7133223958
101325.7520309423
101325.7829474284
101325.7921720015
101325.7689516379
101325.7287164736
101325.68596719
101325.6437802412
101325.6007923024
101325.5591389547
101325.5158371993
101325.4743994871
101325.4309817433
101325.3901047879
101325.3454098464
101325.3032309596
101325.2570256443
101325.2110746919
101325.1602661406
101325.1123970313
101325.0617498464
101325.0152344373
101324.9646938318
101324.9194680864
101324.8752123144
101324.8428274401
101324.8381974704
101324.8690940381
101324.9129692938
101324.9585029829
101325.0032558683
101325.0487379647
101325.0932755559
101325.1382327666
101325.182110037
101325.2267320636
101325.2705075819
101325.3151244477
101325.3590266096
101325.403959193
101325.4483300341
101325.4935219444
101325.538216506
101325.5835126541
101325.6284851769
101325.6731763731
101325.7170782849
101325.7604973454
101325.7965976338
101325.8191372517
101325.8066059649
101325.768909732
101325.7218119324
101325.6773330405
101325.6299241562
101325.5855271837
101325.5381455651
101325.4940828064
101325.4470884906
101325.4036400321
101325.3574150778
101325.3145642098
101325.26860316
101325.2255574329
101325.1794045407
101325.1365345987
101325.0909141447
101325.0479879585
101325.0022536605
101324.960716961
101324.9170209464
101324.8771762694
101324.8455268851
101324.8372503582
101324.8652947352
101324.9120238267
101324.9621317901
101325.0111184246
101325.0614861757
101325.109961629
101325.1604255924
101325.2086001406
101325.2587722688
101325.3059375915
101325.3560201872
101325.4023861547
101325.451548946
101325.4965773697
101325.5455365701
101325.5906412144
101325.6394828684
101325.6824464799
101325.7300285008
101325.771683228
101325.808157826
101325.8237742537
101325.8048070505
101325.7645245219
101325.7214478035
101325.6779210002
101325.6349684203
101325.5913999291
101325.5485733111
101325.505208678
101325.4625585482
101325.4190595386
101325.3757007786
101325.3320139308
101325.2878843759
101325.2416349617
101325.1937476935
101325.1445489743
101325.0955125342
101325.0463295155
101324.9971437292
101324.9492159854
101324.902585496
101324.857939293
101324.8268800851
101324.8207023986
101324.8539132446
101324.9000993025
101324.9505157828
101324.9983098666
101325.048479732
101325.0960814305
101325.145760895
101325.1924358485
101325.2409041943
101325.2871503749
101325.3355460106
101325.3820331986
101325.4301297242
101325.476445245
101325.5245805394
101325.5709437818
101325.6182441759
101325.6638755484
101325.7109982015
101325.7555577316
101325.7973013936
101325.8319030033
101325.8405821107
101325.8154455717
101325.7683308384
101325.7211009305
101325.6714083014
101325.6240757109
101325.5745786952
101325.527797442
101325.4788045334
101325.432965593
101325.3847576135
101325.3393198752
101325.291132122
101325.245550112
101325.1974501088
101325.1524695467
101325.1046021977
101325.059615238
101325.012118565
101324.9686095755
101324.9222882312
101324.8803003393
101324.8432931703
101324.8241311986
101324.8395344397
101324.8829650187
101324.9321913292
101324.9818688927
101325.031120885
101325.0807910487
101325.1298577661
101325.1792309448
101325.2272329011
101325.2756227825
101325.3225157763
101325.3704092464
101325.4170105715
101325.4650810076
101325.5119541041
101325.5598468831
101325.606018692
101325.6534864336
101325.6998400924
101325.7459971331
101325.7883367479
101325.8285183527
101325.8461732888
101325.8343306105
101325.7892249235
101325.7428691625
101325.6912628115
101325.6444147158
101325.5932106037
101325.5466230867
101325.4956926222
101325.4490371485
101325.3986664447
101325.3526592849
101325.3030726308
101325.258188332
101325.2099522961
101325.1655383369
101325.1173341469
101325.0725493884
101325.0246698036
101324.9808288398
101324.9339095569
101324.8914943112
101324.8523296961
101324.8288912931
101324.8368263725
101324.8769250381
101324.9252281881
101324.9747048041
101325.0234696788
101325.0729636011
101325.1216487271
101325.1708513481
101325.2192894917
101325.2682379958
101325.3159982978
101325.3631493941
101325.4090477161
101325.4548933293
101325.500556772
101325.5461626837
101325.5917106152
101325.6370620649
101325.6827838272
101325.7272628189
101325.7710714769
101325.8114552724
101325.839253767
101325.8406574626
101325.8056520285
101325.7575354714
101325.706788242
101325.6572836766
101325.6068061253
101325.5575240514
101325.5072856122
101325.4585145562
101325.409151838
101325.3613071572
101325.3136854799
101325.269827788
101325.2262714866
101325.1843508646
101325.1408874768
101325.0987480178
101325.0556571431
101325.0138385633
101324.9704280729
101324.9300677086
101324.8913352311
101324.8576825103
101324.8457320428
101324.8657177253
101324.91272086
101324.9615204828
101325.0131478284
101325.0622305078
101325.11353098
101325.1620286468
101325.2127299649
101325.2597314276
101325.3062375954
101325.348213113
101325.39155505
101325.4327967711
101325.4760961181
101325.5173380226
101325.5610548852
101325.6028480023
101325.6459464217
101325.6864361329
101325.7288418977
101325.7680401823
101325.8024014863
101325.8240769411
101325.8129999784
101325.7727100887
101325.7218823081
101325.6722408813
101325.621084622
101325.5715786858
101325.5205547433
101325.4716868594
101325.4223248089
101325.3762393898
101325.3318491414
101325.2898330091
101325.2468273281
101325.2047082314
101325.1612499016
101325.1191301872
101325.0759855425
101325.0338655806
101324.9906043293
101324.9501097484
101324.9101671864
101324.8734685961
101324.8523656753
101324.858723072
101324.8997184078
101324.9483215367
101325.0002641596
101325.0496657148
101325.1012599729
101325.1500872076
101325.2011882087
101325.2484702066
101325.2954565365
101325.3377541706
101325.3814292015
101325.4228219968
101325.4663465198
101325.5078969328
101325.5520325422
101325.594147764
101325.6377165169
101325.6787811926
101325.722003715
101325.7618120746
101325.7980074806
101325.8237022887
101325.8193161543
101325.7833479115
101325.7334478393
101325.6843829493
101325.6336096038
101325.5845659362
101325.5339799229
101325.4856351991
101325.4363565718
101325.3903610776
101325.3456751606
101325.3037351147
101325.2605598476
101325.2185183786
101325.1749502983
101325.1329606676
101325.08946802
101325.0472412703
101325.0037340942
101324.9631226259
101324.9221749484
101324.884278304
101324.8587057393
101324.8570284273
101324.8920681276
101324.9393693677
101324.9904916844
101325.0392931057
101325.0900923607
101325.1384106685
101325.1887912099
101325.2354540428
101325.2820781958
101325.3242679863
101325.3678350227
101325.4090808947
101325.4523863392
101325.4939638739
101325.537988396
101325.580031545
101325.6234820159
101325.6647373628
101325.7081717273
101325.7481263116
101325.7858101672
101325.815654726
101325.8199670399
101325.7912214817
101325.7430979584
101325.6946524
101325.6444187222
101325.5958947285
101325.5459473823
101325.4984115286
101325.4499603619
101325.4054253208
101325.361190522
101325.3194611311
101325.2760268132
101325.2340167114
101325.1902856682
101325.1484402397
101325.1048593532
101325.062513854
101325.0183481302
101324.976890846
101324.9346183306
101324.8965572975
101324.867958547
101324.8608363353
101324.8884438092
101324.9341829505
101324.9811628575
101325.0249624336
101325.0714709413
101325.1173870037
101325.167477963
101325.2179350679
101325.2715300304
101325.3210077544
101325.3678402012
101325.4027249316
101325.4321574971
101325.4593442856
101325.4849278216
101325.5007839246
101325.5264414983
101325.5560846923
101325.576623441
101325.6035624495
101325.6260427213
101325.6474050557
101325.6430312902
101325.6098121174
101325.5489810122
101325.4764720344
101325.3946343164
101325.3151668932
101325.2401310533
101325.1910953109
101325.1437971068
101325.1125044373
101325.0840952467
101325.0579755537
101325.0306279319
101325.0074318828
101324.9922063154
101324.967871875
101324.9292516556
101324.9019548361
101324.8694892788
101324.8422914362
101324.807756219
101324.7835694728
101324.7640175976
101324.7574275982
101324.7938080851
101324.8671796896
101324.9534663789
101325.0391559728
101325.1149190936
101325.1897652503
101325.2621098114
101325.2979406294
101325.3322831348
101325.3565384488
101325.3876309699
101325.4139685039
101325.4363250449
101325.4672365478
101325.4964147491
101325.5237766748
101325.5464140024
101325.5786995891
101325.6093639321
101325.6415423672
101325.6701275261
101325.6962354097
101325.7045796818
101325.6815883734
101325.6244491097
101325.5485829734
101325.4737481721
101325.3918629216
101325.3117160078
101325.2552508432
101325.2106000371
101325.1745008483
101325.1444219399
101325.1197580365
101325.0973565975
101325.0687112957
101325.0513363942
101325.0294505943
101325.0075983249
101324.9744350578
101324.9500658776
101324.9208244735
101324.8932638364
101324.8671915492
101324.8463680276
101324.8366630501
101324.8514662415
101324.9130622781
101324.9872596781
101325.0799953202
101325.1490246286
101325.2276955088
101325.3027510304
101325.3605198681
101325.3934473102
101325.4254621266
101325.450313821
101325.4786044832
101325.5049018507
101325.5298882265
101325.5628251631
101325.5907209298
101325.6170944048
101325.6467125571
101325.6784082151
101325.7050948717
101325.7352338525
101325.7623228914
101325.7803239687
101325.772178021
101325.7251224684
101325.6615079567
101325.5634681423
)
;

boundaryField
{
    inlet
    {
        type            calculated;
        value           uniform 101324.9999999994;
    }
    outlet
    {
        type            calculated;
        value           uniform 101325.5447232329;
    }
    frontAndBack
    {
        type            empty;
    }
}


// ************************************************************************* //
