/*--------------------------------*- C++ -*----------------------------------*\
| =========                 |                                                 |
| \\      /  F ield         | OpenFOAM: The Open Source CFD Toolbox           |
|  \\    /   O peration     | Version:  v2012                                 |
|   \\  /    A nd           | Website:  www.openfoam.com                      |
|    \\/     M anipulation  |                                                 |
\*---------------------------------------------------------------------------*/
FoamFile
{
    version     2.0;
    format      ascii;
    class       volScalarField;
    location    "0.008";
    object      T;
}
// * * * * * * * * * * * * * * * * * * * * * * * * * * * * * * * * * * * * * //

dimensions      [0 0 0 1 0 0 0];


internalField   nonuniform List<scalar> 
1000
(
299.9971374995681
299.9972553480721
299.988173152168
299.9769056229629
299.9688083488255
299.963992821148
299.9633380146372
299.9638673392527
299.9650352130773
299.9635545901697
299.9571020780845
299.9513724128856
299.9499361937856
299.9557085694915
299.9659445466288
299.9739026130894
299.9763248195553
299.9727858052825
299.967495106796
299.9666719513633
299.9730701055105
299.9873803757065
300.0037829211397
300.0144109288572
300.0177886926953
300.0171590475574
300.0168380231804
300.0191368731178
300.024088735722
300.0306442990747
300.0355123317269
300.0362165658165
300.0405879268516
300.0460471813353
300.0493694816874
300.0492652909028
300.0433327746405
300.0357970935398
300.0291813871996
300.0288119855386
300.030664271552
300.0324979877736
300.0302105784267
300.0237936250607
300.0117538994374
299.9988537244627
299.9885032256735
299.9841033892955
299.9861355350615
299.9888126692804
299.9853585533596
299.9777124237261
299.9662804888254
299.956556532177
299.9517605891306
299.953087682876
299.9577354270813
299.9610090005636
299.961012502424
299.9581202631693
299.9559651029628
299.9585295539777
299.9630207627095
299.9702953441972
299.9748230836334
299.9762369448475
299.975219322466
299.9791155291007
299.9927309102795
300.0102705181138
300.0185018693911
300.0210024322053
300.0198268742615
300.0169001383562
300.0171615582822
300.0238949331962
300.0367229135327
300.0472815006621
300.0503254896134
300.0470204411745
300.0414516504853
300.0379639198896
300.0389188731793
300.0436545789152
300.0455501517331
300.0419002990189
300.0351948792373
300.0275102716625
300.0221027484279
300.0150633015249
300.0103699686624
300.0077092635548
300.0043218489325
299.9982243299974
299.9908657088373
299.9836422858357
299.9733317107341
299.9643462268049
299.9624232375349
299.9631115822347
299.964679842175
299.9629278601038
299.9568613884263
299.951381542892
299.9485349064109
299.9512723691395
299.9585507821714
299.9655150027508
299.9705101423579
299.9705044671566
299.9689357933875
299.9677973076694
299.9708801031459
299.9765065738221
299.9857761337933
299.9960007249937
300.0079550550103
300.0184795677967
300.0232188378091
300.0259726802944
300.0287337226939
300.0310979916022
300.0337686708405
300.0385248250712
300.0431010834084
300.0456174202411
300.0497523690057
300.051046441992
300.0483069277778
300.043208806842
300.0363526285715
300.03189975458
300.0305597517791
300.033024738373
300.035427592695
300.0336359449367
300.0250596256896
300.0088827654752
299.992275286977
299.9836661334185
299.9816760801596
299.984178975663
299.9863319663834
299.9817651117588
299.9703750553116
299.959372909261
299.952555236986
299.9502870493631
299.9515783303209
299.9541453240551
299.9572618955424
299.9592331225587
299.9612349759685
299.9607475252134
299.9604657925354
299.9610886698726
299.9632448503275
299.9667725444451
299.9713537312177
299.9772490239685
299.9852399176301
299.9987948029572
300.0143056099948
300.0196893549347
300.0203767932917
300.0214990454609
300.0236156464964
300.0267849936275
300.0304665354031
300.0377520960652
300.0451452517383
300.0479848740352
300.0477121053419
300.0484403353686
300.0470149631453
300.0437960836495
300.0407723335687
300.0387400451218
300.0373481685169
300.0363524540124
300.0364425710337
300.0339709599925
300.0242935564784
300.0063140239773
299.9922611950321
299.9887531726657
299.9879750529408
299.9882564742037
299.9863278244214
299.9796387664008
299.9660625406351
299.9552895620384
299.9538680061172
299.9542420126016
299.954585151943
299.9559905432782
299.9571487266019
299.9574688743765
299.9576370010839
299.9574594228652
299.9573588823386
299.9584566309237
299.9609471833028
299.9652584838976
299.9711746169729
299.9770178266121
299.9817585256703
299.9867163307061
299.9947485098099
300.0097884846073
300.0278545994822
300.0350318827134
300.0354991450404
300.0354338966655
300.0356767562681
300.0365043264686
300.0372113469442
300.0405293858595
300.0455081662348
300.0477242624273
300.0490198109414
300.0487132601432
300.0470224071165
300.0441412859925
300.0398365271118
300.0349775518521
300.0320748550594
300.0311816360145
300.0305116205599
300.0284422269327
300.0222394624723
300.0066077626469
299.9810345196535
299.9651194436627
299.9635848898359
299.9640513058866
299.9644441889707
299.9638205839274
299.9626871491139
299.9617356770109
299.9592393787229
299.9549281976923
299.9518050069753
299.9516725184718
299.9523454542325
299.9536040173901
299.9539848493816
299.9555675348799
299.9606845344385
299.9679437252468
299.9725931371812
299.9743145290758
299.97526766928
299.976712278462
299.9820388094603
299.9987653605244
300.0263024947281
300.0410732415694
300.0428610671055
300.0429437543512
300.0423059301276
300.0415776159618
300.0411548586601
300.0411733755119
300.0413307837608
300.0419732723301
300.0436609183295
300.0453773234355
300.0458116215248
300.0457601491255
300.0456983406488
300.0454192784761
300.0442276936879
300.04166505783
300.0346177025748
300.0181749376265
299.9967476152278
299.9866449931166
299.9848345804597
299.9840174508686
299.9820633263917
299.9771800069564
299.9667851957214
299.9586150842899
299.9571849642024
299.9571810445932
299.9573477028607
299.9571523427068
299.956809177873
299.9566426979696
299.9561550808467
299.9553240142399
299.9549806061559
299.9552338239311
299.9557412780089
299.9559145357011
299.9568568910004
299.9613258801235
299.9709664038905
299.9935825602361
300.0167232646263
300.0233515347635
300.0237667258511
300.0236637398021
300.0248402060473
300.0272745913009
300.0332191050563
300.0395700683258
300.0415921627726
300.0419611404105
300.0418245948252
300.0417580777867
300.0426994206614
300.0443085068659
300.0457656319043
300.0462176481087
300.0462255800629
300.0458744471641
300.0424475948921
300.0364563752613
300.0226233329839
300.0078637636329
300.0027178722434
300.0020033734651
300.0019893245065
299.9998679290492
299.9937412501602
299.9775779129193
299.9616063693054
299.957819016
299.9576760128041
299.9575933907752
299.9572927227735
299.9569229481922
299.9557649949787
299.9530293123351
299.950908620501
299.9504933045405
299.9506591013159
299.9509256747966
299.9509262282455
299.9510054047101
299.9515054401458
299.9525010948408
299.9543205328883
299.9602519825811
299.9764659040785
300.0103857846419
300.0418861564423
300.0487867218405
300.0490614972662
300.0491756029468
300.0490104301855
300.0487204333439
300.0485318789855
300.0478477453199
300.0459703987247
300.0434659185917
300.0424018396631
300.0423607919261
300.0424094244203
300.0423256731656
300.0423631675675
300.0425620973212
300.0423960068372
300.0419153123821
300.0415091727954
300.0413732676972
300.038346589195
300.0307314342145
300.0090194038573
299.9733520607385
299.9542669825797
299.952427826347
299.9525114238781
299.9527560035606
299.9528515075892
299.9535047920895
299.955386871335
299.9578871441582
299.9589112381699
299.958971893608
299.9590003620821
299.9589988262533
299.9587108244829
299.9583968623547
299.9585049649691
299.9589474538879
299.9589215768405
299.9590296431716
299.9614191415926
299.966051671313
299.9829638220414
300.0135433705748
300.0328948994978
300.0352883408287
300.0353494359329
300.0354103414123
300.0353540872924
300.0352918549628
300.0352868022192
300.0355863045145
300.0362544419087
300.0379207930329
300.0422490217358
300.0465099822986
300.0474936143723
300.0474013821464
300.0471804061055
300.0470125220148
300.0459075283171
300.0434679336024
300.0385845033275
300.0306041669687
300.0224657362077
300.0168319511142
300.0121628381543
300.0044046581401
299.9870315638876
299.9625988141452
299.951359577298
299.9504640303867
299.9503983423026
299.9504518680355
299.9510493436799
299.9519309716266
299.9524203187448
299.9526204043726
299.9532452813996
299.954575938161
299.9560939533587
299.9610405721278
299.9679226661501
299.971677158169
299.9723668384151
299.9724963529652
299.9737083044475
299.9760348016597
299.984830186176
300.0043571494373
300.0206462746579
300.0238331525121
300.0239289322828
300.0239359123958
300.0245248519309
300.0255136961272
300.0293025720492
300.0370165080958
300.042194571588
300.0428966369063
300.0427463725372
300.0425588582413
300.0427179885127
300.0428868014837
300.0427012198919
300.0427242467522
300.0431666322724
300.0436411828425
300.0427760262828
300.0414148600379
300.0407928313518
300.0349345692511
300.0186550283731
299.9853931825818
299.9598035438804
299.9556961634697
299.9555709266445
299.9556172300541
299.9558330630775
299.9560851198082
299.9567764467225
299.9582850360961
299.9595146098671
299.9597707207597
299.9596845294868
299.9595825055421
299.9595737696922
299.9595067385525
299.9594139424167
299.9594439824216
299.9596835856386
299.9600146520469
299.9602792653993
299.9619187930847
299.9665130884906
299.9805377057433
300.0100193782388
300.035079097251
300.0397820491725
300.0398938752832
300.0399216545511
300.039976851631
300.0398150557942
300.0396044095781
300.0397089191955
300.0400638711777
300.0400762267606
300.0402262661153
300.0417087226481
300.0439125899362
300.0456356947966
300.0460807978085
300.0463105462972
300.0467060382058
300.0456116970769
300.0440268881111
300.0436091809821
300.0370055195337
300.0179999347157
299.9825618617707
299.9603515925356
299.9577455090428
299.9577142825476
299.957707573678
299.9578270987519
299.9579912973559
299.9582962280585
299.9584604494622
299.9585197062232
299.9584286054289
299.9583007471015
299.9582842707181
299.9580960036403
299.9577701711935
299.9576049634836
299.9576347872448
299.957774818342
299.9577516742795
299.957907318936
299.9592787367445
299.9617456196319
299.9715997707424
299.9965426761811
300.0297874876148
300.042402625777
300.0432087003998
300.0432666555097
300.0431683698643
300.043050453903
300.0430306427361
300.0428915879309
300.0424305125114
300.0419604114228
300.0418068331768
300.0418250799722
300.0417958815456
300.0417081484914
300.0417721605012
300.0419700167195
300.0416292610069
300.0410572309731
300.0410936529806
300.0409059182095
300.0388324772699
300.0347376449931
300.0196010989542
299.9869689694898
299.9588763463157
299.9535457960193
299.9534448114722
299.953449965309
299.9533283220576
299.9535391938464
299.9538618221846
299.9539479974523
299.9539069011466
299.9543335841837
299.9550455835174
299.9553724249323
299.955386894254
299.9556841051912
299.9563113257376
299.9565486150001
299.9557989280964
299.9568570347357
299.9592801873915
299.9614918396695
299.974583562681
300.0044819684898
300.0337493825483
300.0404418467106
300.0407105348303
300.0407966515021
300.040650195384
300.0404781202284
300.0404564865231
300.0405868629563
300.0406423681962
300.0405101403786
300.0408456310238
300.0416199239785
300.0422735729728
300.0441464908881
300.0459938608838
300.0464814988954
300.0462428618894
300.0457084269732
300.0455783228386
300.0451976811405
300.0424496455713
300.036672240573
300.0178478994806
299.9821392721708
299.9573436760621
299.9538835226467
299.9538230237658
299.9537945071248
299.9538945290398
299.9542717074506
299.9547562770611
299.9552185096507
299.9554037712284
299.9554941549537
299.9555087313811
299.9553881043284
299.9553290864668
299.9556238442967
299.9559432763498
299.955794109114
299.9557732377854
299.9564769943745
299.9575996251249
299.9582613694972
299.9637890936787
299.9787531107577
300.0114046242933
300.0398729518632
300.0454823996863
300.0456336713875
300.0455489172243
300.0454768363907
300.0453992554719
300.0449962516402
300.0444091700567
300.0441043969234
300.044116788261
300.0441239470168
300.0439406304254
300.0438417460961
300.044064249156
300.0438828561474
300.0433798424467
300.0430285741522
300.0433353131775
300.042702790685
300.0406959622553
300.0382698985027
300.0273056385037
300.0000484698018
299.9657875721424
299.95409474582
299.9534471848447
299.9533722315389
299.9534853632113
299.9536700990333
299.9538092158801
299.9540900500789
299.9548222591276
299.9554475690554
299.9555971000571
299.9554651691525
299.9553695125053
299.955577605922
299.9557255865872
299.9554708111933
299.9556855017764
299.9563614574481
299.9569414892505
299.957301642405
299.9614347838764
299.9715536303382
299.9988513897107
300.0335358129909
300.0456584233159
300.0463037581371
300.0462309474071
300.0462068582831
300.0461971321859
300.0460016378805
300.0457495493749
300.0456586692171
300.0455872864853
300.045037249658
300.0441663052018
300.0436772335875
300.0437106484628
300.0438095915475
300.0435417294107
300.0433156793413
300.043517428904
300.0430259276878
300.041428830684
300.0392638217948
300.0301594150955
300.006601008442
299.9712834824691
299.955115688226
299.9538000564502
299.9537355280481
299.9538480594834
299.9539742715142
299.953982383021
299.9540326179789
299.954263713633
299.9546781521977
299.955370068951
299.9564034027813
299.9570093867749
299.9571596834474
299.957140342148
299.9570060485864
299.9571805756142
299.9574712743667
299.9576245731299
299.9580275032437
299.9605948780568
299.9668910222907
299.9861745921032
300.0210577736524
300.0439719308471
300.0469890213294
300.0470762753671
300.0471790183915
300.0469912297806
300.046634716974
300.0463884066064
300.046304897959
300.0458178676988
300.0445581289133
300.0428004447166
300.0409130971036
300.0401198960481
300.0398251132702
300.0400164051871
300.0404296817309
300.0403446771297
300.0395700013128
300.0388709583213
300.038482562141
300.0338946622458
300.0225978369076
299.9940739566695
299.9621377918815
299.9530045205557
299.9526138098442
299.952758349784
299.9528733652213
299.9529006989683
299.9532836895883
299.9542913658122
299.9559977949248
299.9587163155962
299.9602240868891
299.9605269365438
299.9602879614924
299.9599311926175
299.9599106623518
299.960211429605
299.9603074663664
299.9599839662576
299.9608014096454
299.9626428697117
299.9641408100341
299.9729144733991
299.9957398218684
300.0301650143394
300.0460961541223
300.0474519391215
300.0475843385209
300.0473956251676
300.047115509206
300.0469389046514
300.0465003299598
300.044714713755
300.0419940503043
300.0403216905504
300.0400887263451
300.0400357459739
300.0399338527047
300.0402041503353
300.0406214283582
300.0401942257866
300.0394793206004
300.0393548632449
300.0389208913831
300.0354936521476
300.0284646914683
300.006729689468
299.9718171936487
299.9540106718886
299.9524098212728
299.9524739329451
299.9525222717285
299.9525945187912
299.9530338635517
299.9539462219639
299.9555753358428
299.9583522318492
299.9600060362895
299.9603147265675
299.9600336957222
299.95967047947
299.9597141467723
299.9598304909201
299.9597555890466
299.9595187087307
299.9603325869334
299.9619101345709
299.9629585172275
299.9703678602788
299.9899807632733
300.0242582363417
300.0445881519413
300.0469917646798
300.0471361585832
300.0469300238003
300.0466540315344
300.0465704645196
300.0461422702392
300.0445786447557
300.042198875864
300.0404574866677
300.0400836020196
300.0399472085857
300.0399751010581
300.0403142156525
300.0406607042563
300.0402221384335
300.0396380964783
300.0397972472772
300.0392581615008
300.0362935260817
300.0311724227643
300.0131944626094
299.9793785711065
299.9563114810639
299.9531572094403
299.9531051892717
299.953050949327
299.9532114446986
299.9537284325551
299.9544656632129
299.9559882909419
299.9585847485853
299.9601245402953
299.9603926004019
299.9600913655214
299.9597858748061
299.9598963692872
299.9598595945182
299.95959234859
299.9595741987155
299.9603889144533
299.961563166685
299.9621968919622
299.9679866282893
299.9832692634461
300.0153113751811
300.0415599277373
300.0463840512705
300.0465732976975
300.0463812420639
300.0461115158847
300.0460055189546
300.0452729885725
300.0434209667694
300.0412056138488
300.0402437201725
300.0401106804304
300.0400022095106
300.0401756399515
300.0405809199115
300.0409000001659
300.0404176353008
300.0397147018165
300.0394028368516
300.0388638731158
300.0368775138118
300.0339649971045
300.02021338347
299.9893704642087
299.9608736630934
299.9543373225716
299.9516533296986
299.9509139270485
299.9518324471331
299.9551403737389
299.9603859064204
299.9643139996471
299.9661797110273
299.9657335790993
299.9589045504431
299.9483148197446
299.9428713137074
299.941073788175
299.9419432706477
299.9427856335335
299.942262098339
299.9409477579954
299.9426892323355
299.9465519557146
299.9518291680584
299.9643976292778
299.989668573567
300.0183760115696
300.0250496730106
300.0236570261346
300.0213679415698
300.0209796718017
300.0269827339749
300.0420443006605
300.0531921913387
300.0561293635117
300.0556845025338
300.0548630709952
300.0551024297575
300.0567128910412
300.0581512754643
300.0575583975488
300.0556407803575
300.0542222697462
300.0532744105888
300.0512097175432
300.0482594164536
300.0454491934964
300.0381699454707
300.020177501002
299.9946856099975
299.9831636143022
299.9811026235206
299.9829683413928
299.9826155812652
299.9758764006466
299.9595891212259
299.9485393013973
299.9456484583039
299.9457182825909
299.9459954176347
299.9461993119398
299.9447875109996
299.9439092598428
299.9443958433228
299.9451945598901
299.9462560835931
299.9465990115193
299.9475309531229
299.9488359330848
299.9507365193268
299.9577879456136
299.975905060198
300.0078447441136
300.0264682820119
300.0287404799107
300.0275863972713
300.0265927299347
300.0281034421038
300.0372268202557
300.0494597892379
300.0549742782358
300.0556260659481
300.0546773535442
300.0549886203496
300.0555120342219
300.0568896917769
300.0584375767077
300.059001285801
300.0588415967891
300.0574817935006
300.0561796208559
300.0540129479645
300.0508578337036
300.0450641229652
300.02940108617
299.9990436945048
299.9783291161489
299.9747184740522
299.9753106186218
299.9762868409035
299.9749915687986
299.9678895583443
299.9571559554924
299.9516013180678
299.9491374697337
299.9477021401109
299.9463970000211
299.9456804728944
299.9450406769006
299.9450352016448
299.9453363176034
299.9459380018859
299.9466635663874
299.9469256544033
299.946675422781
299.9482228294495
299.951057559814
299.963710967657
299.993674128187
300.0261089770376
300.0369045715302
300.0376606798929
)
;

boundaryField
{
    inlet
    {
        type            fixedValue;
        value           uniform 300;
    }
    outlet
    {
        type            inletOutlet;
        inletValue      uniform 300;
        value           uniform 300.0376723535724;
    }
    frontAndBack
    {
        type            empty;
    }
}


// ************************************************************************* //
