/*--------------------------------*- C++ -*----------------------------------*\
| =========                 |                                                 |
| \\      /  F ield         | OpenFOAM: The Open Source CFD Toolbox           |
|  \\    /   O peration     | Version:  v2012                                 |
|   \\  /    A nd           | Website:  www.openfoam.com                      |
|    \\/     M anipulation  |                                                 |
\*---------------------------------------------------------------------------*/
FoamFile
{
    version     2.0;
    format      ascii;
    class       volVectorField;
    location    "0.008";
    object      U;
}
// * * * * * * * * * * * * * * * * * * * * * * * * * * * * * * * * * * * * * //

dimensions      [0 1 -1 0 0 0 0];


internalField   nonuniform List<vector> 
1000
(
(-0.03600739977584097 0 0)
(-0.04519619568494752 0 0)
(-0.02723947774532889 0 0)
(-0.0215672694761094 0 0)
(-0.03686103475158373 0 0)
(-0.07301076729572552 0 0)
(-0.1088818928577408 0 0)
(-0.1386206281306598 0 0)
(-0.1426768172919673 0 0)
(-0.1342033785690314 0 0)
(-0.1097727710657204 0 0)
(-0.09900726849082378 0 0)
(-0.09967864769286736 0 0)
(-0.1101904197714038 0 0)
(-0.1208938521053757 0 0)
(-0.1218914922157695 0 0)
(-0.1120415254413939 0 0)
(-0.09278848729478285 0 0)
(-0.06733230092871526 0 0)
(-0.04669203795945671 0 0)
(-0.0379174557777986 0 0)
(-0.02640972788609866 0 0)
(-0.008226460042343644 0 0)
(0.007378222055795531 0 0)
(0.01845126318265489 0 0)
(0.02772381142804539 0 0)
(0.04251619708798386 0 0)
(0.06042258913956239 0 0)
(0.08776904439146911 0 0)
(0.1158693822093759 0 0)
(0.1325472140315182 0 0)
(0.1331756391754942 0 0)
(0.1199825102858759 0 0)
(0.1036521154975517 0 0)
(0.1014829418848788 0 0)
(0.1067772210939863 0 0)
(0.1248498979870085 0 0)
(0.1358519906646298 0 0)
(0.1307409756554799 0 0)
(0.1106359277638734 0 0)
(0.08173976087330201 0 0)
(0.05484050793223284 0 0)
(0.0404472818641057 0 0)
(0.04502966049562195 0 0)
(0.05107991022973973 0 0)
(0.04117255022325373 0 0)
(0.009350458041656554 0 0)
(-0.02770315732828701 0 0)
(-0.05896696269903225 0 0)
(-0.07659786588983902 0 0)
(-0.08424324540277067 0 0)
(-0.07658463963805291 0 0)
(-0.07221944691175695 0 0)
(-0.0832089569077428 0 0)
(-0.1064103401032809 0 0)
(-0.1264962519178842 0 0)
(-0.1502740806103907 0 0)
(-0.1540116412695401 0 0)
(-0.1408456692129637 0 0)
(-0.1171599819982036 0 0)
(-0.09690218451813135 0 0)
(-0.08615678926393494 0 0)
(-0.09011388995455409 0 0)
(-0.1003393891861288 0 0)
(-0.1049101056853169 0 0)
(-0.09193565520059901 0 0)
(-0.06702910428793395 0 0)
(-0.03638591638782204 0 0)
(0.001319713209542432 0 0)
(0.03353709958809155 0 0)
(0.04099708448775493 0 0)
(0.03992925389405929 0 0)
(0.0450332462339344 0 0)
(0.05727831880977192 0 0)
(0.07313622941516211 0 0)
(0.08106129988756802 0 0)
(0.09910596168192876 0 0)
(0.1176655542651896 0 0)
(0.1272806926240713 0 0)
(0.1361689984313991 0 0)
(0.1384684808888242 0 0)
(0.1297741338037192 0 0)
(0.1221750298997149 0 0)
(0.1093514203444582 0 0)
(0.1051504041681915 0 0)
(0.1072418390394593 0 0)
(0.1134307121037922 0 0)
(0.1116213408810011 0 0)
(0.08823047824118214 0 0)
(0.04437257497699713 0 0)
(0.007323686769166568 0 0)
(-0.01095141364491346 0 0)
(-0.01238117678839445 0 0)
(-0.002529323113774018 0 0)
(0.003947273933476363 0 0)
(-0.01047199237735862 0 0)
(-0.0505501866005553 0 0)
(-0.1017800217828265 0 0)
(-0.1293263734115259 0 0)
(-0.1410547950988336 0 0)
(-0.1356183647971253 0 0)
(-0.1268240578414892 0 0)
(-0.1134762887901992 0 0)
(-0.1072764142884271 0 0)
(-0.110792717544893 0 0)
(-0.1165086051571201 0 0)
(-0.1273330892633441 0 0)
(-0.1334121818332343 0 0)
(-0.125095917756175 0 0)
(-0.1068094163387603 0 0)
(-0.08229854281538256 0 0)
(-0.06095958677029756 0 0)
(-0.04874788042154723 0 0)
(-0.04921646055361198 0 0)
(-0.04969265067856764 0 0)
(-0.03400168540514283 0 0)
(0.004004017870793131 0 0)
(0.04582097565236049 0 0)
(0.06707149743572338 0 0)
(0.07544767716846153 0 0)
(0.07896561756583198 0 0)
(0.08785158555464637 0 0)
(0.1085782075400931 0 0)
(0.1321212100870394 0 0)
(0.1451192102561507 0 0)
(0.1416274108649556 0 0)
(0.1271036739793978 0 0)
(0.115658597659153 0 0)
(0.1109208404399677 0 0)
(0.1165369375885796 0 0)
(0.1256332683184678 0 0)
(0.1284659416692147 0 0)
(0.1196607658076848 0 0)
(0.1022042704638323 0 0)
(0.08144040076763305 0 0)
(0.05976900387228596 0 0)
(0.04392986760756514 0 0)
(0.02059357607462317 0 0)
(-0.002504349830248677 0 0)
(-0.01530249510280053 0 0)
(-0.02438013406495576 0 0)
(-0.03770834540452059 0 0)
(-0.05905767588197631 0 0)
(-0.08238777462174 0 0)
(-0.1103945370406786 0 0)
(-0.125253705493414 0 0)
(-0.1231768833035969 0 0)
(-0.1179415947234206 0 0)
(-0.1148708674725831 0 0)
(-0.1206914970989034 0 0)
(-0.1332929681375385 0 0)
(-0.1409026355897756 0 0)
(-0.1367417119216842 0 0)
(-0.1262548640552023 0 0)
(-0.1110371231749305 0 0)
(-0.09602628173308711 0 0)
(-0.08580025167801714 0 0)
(-0.08206014555033329 0 0)
(-0.08151478576291664 0 0)
(-0.07747485228046615 0 0)
(-0.05846225077886971 0 0)
(-0.01420316340367431 0 0)
(0.04040591231512087 0 0)
(0.06502398956910167 0 0)
(0.07146218569517356 0 0)
(0.07112255922524675 0 0)
(0.06773750146328208 0 0)
(0.06739634012325811 0 0)
(0.0785048537070198 0 0)
(0.1067078927408098 0 0)
(0.1351850612588411 0 0)
(0.1463082024856615 0 0)
(0.1465811742079168 0 0)
(0.1395803635303636 0 0)
(0.129038190189421 0 0)
(0.1181293574480025 0 0)
(0.1132986467629462 0 0)
(0.1141406537978484 0 0)
(0.1159353260570134 0 0)
(0.1140871365570519 0 0)
(0.1066852137591293 0 0)
(0.09271939719756142 0 0)
(0.06339107426675092 0 0)
(0.01456140094852904 0 0)
(-0.02138356183511047 0 0)
(-0.02841634716004316 0 0)
(-0.03066180331917719 0 0)
(-0.03469544896309411 0 0)
(-0.04037822936135679 0 0)
(-0.05845906569556304 0 0)
(-0.09745490743401547 0 0)
(-0.1290614683426797 0 0)
(-0.1341673329179014 0 0)
(-0.1350339433428508 0 0)
(-0.1316069538335096 0 0)
(-0.1262380134654691 0 0)
(-0.1230504082476691 0 0)
(-0.1230681034629037 0 0)
(-0.123535572337218 0 0)
(-0.1225044422089875 0 0)
(-0.120298054492813 0 0)
(-0.1193466361733633 0 0)
(-0.1149788532319328 0 0)
(-0.1034193028338877 0 0)
(-0.08476254680939373 0 0)
(-0.06541089483041712 0 0)
(-0.05021676871037612 0 0)
(-0.03632220977623916 0 0)
(-0.01488338831295629 0 0)
(0.02695745722793989 0 0)
(0.07887542759853776 0 0)
(0.1004943932414324 0 0)
(0.1028907565192825 0 0)
(0.1036297473543043 0 0)
(0.1034716087018527 0 0)
(0.1033923890632653 0 0)
(0.1086430638685001 0 0)
(0.1207099399074448 0 0)
(0.1342503374518098 0 0)
(0.1373341962062141 0 0)
(0.136351633430903 0 0)
(0.1344899476911362 0 0)
(0.1360706410991932 0 0)
(0.133527378818018 0 0)
(0.1225472334812066 0 0)
(0.1051881726119068 0 0)
(0.09169674542971526 0 0)
(0.08530418562104231 0 0)
(0.08135989461505 0 0)
(0.07708839910244226 0 0)
(0.06502850989221645 0 0)
(0.02576746480588116 0 0)
(-0.04775254462782081 0 0)
(-0.09803167170037423 0 0)
(-0.1068872326620063 0 0)
(-0.1099583701353555 0 0)
(-0.1088321720322823 0 0)
(-0.1069086353898035 0 0)
(-0.1062586637745133 0 0)
(-0.1087173873628363 0 0)
(-0.1145644115963213 0 0)
(-0.1264997163621169 0 0)
(-0.1367721858234476 0 0)
(-0.1393916563378649 0 0)
(-0.1419210310472162 0 0)
(-0.1417791089506156 0 0)
(-0.1367284337697994 0 0)
(-0.1251669163141355 0 0)
(-0.1069827565184618 0 0)
(-0.08813711441193393 0 0)
(-0.07916952549956974 0 0)
(-0.07735708652399034 0 0)
(-0.07576158874996985 0 0)
(-0.06977701418874381 0 0)
(-0.05068611747742554 0 0)
(-0.0007786129126019854 0 0)
(0.07782554417813185 0 0)
(0.1187517877942376 0 0)
(0.122947040105758 0 0)
(0.12226793025869 0 0)
(0.1222378865021351 0 0)
(0.1209847106393456 0 0)
(0.1195566352440241 0 0)
(0.1190779006357361 0 0)
(0.1196828199868226 0 0)
(0.121704202373165 0 0)
(0.1257580584294979 0 0)
(0.1306546091870522 0 0)
(0.1325224254628207 0 0)
(0.1331277992594521 0 0)
(0.1324411413730215 0 0)
(0.1307489796784866 0 0)
(0.1283320372626584 0 0)
(0.1204391690086439 0 0)
(0.09953513545429166 0 0)
(0.05262985164933486 0 0)
(-0.008811320375018901 0 0)
(-0.03825097497826216 0 0)
(-0.04407439522886251 0 0)
(-0.04688587643559471 0 0)
(-0.05135319828254472 0 0)
(-0.06663642869815822 0 0)
(-0.09623053829252025 0 0)
(-0.1191098960525593 0 0)
(-0.1231852968187877 0 0)
(-0.1237282712664863 0 0)
(-0.1243560462218732 0 0)
(-0.1244216265992575 0 0)
(-0.1241788448358073 0 0)
(-0.1252321617433043 0 0)
(-0.1274985101604583 0 0)
(-0.1291024088279134 0 0)
(-0.1292359097006703 0 0)
(-0.1291675524639408 0 0)
(-0.1295834892349734 0 0)
(-0.1276465595379865 0 0)
(-0.1227636831733862 0 0)
(-0.1144293108435968 0 0)
(-0.08217036094825803 0 0)
(-0.01765038659745471 0 0)
(0.04716929306797624 0 0)
(0.06624047764327529 0 0)
(0.06901836653513745 0 0)
(0.07068518584747879 0 0)
(0.07057165104144138 0 0)
(0.0778948466385648 0 0)
(0.09691458902289947 0 0)
(0.1153419295295506 0 0)
(0.1199380991684239 0 0)
(0.1202058207891476 0 0)
(0.1212300682132229 0 0)
(0.1227737622145592 0 0)
(0.1225879642729805 0 0)
(0.126010094419201 0 0)
(0.1328568608591851 0 0)
(0.1357005550225424 0 0)
(0.1340881782994318 0 0)
(0.1292315673322694 0 0)
(0.1261680218234188 0 0)
(0.1055350978816454 0 0)
(0.06362935409027962 0 0)
(0.02209678286540056 0 0)
(0.008840807210943685 0 0)
(0.006661161259978805 0 0)
(0.004235238339972094 0 0)
(0.0009902046427283174 0 0)
(-0.01884812035165606 0 0)
(-0.06461006020757934 0 0)
(-0.1105782196499839 0 0)
(-0.1220493619183799 0 0)
(-0.1229978488600203 0 0)
(-0.1232629436437471 0 0)
(-0.1227917031930043 0 0)
(-0.1240343164615482 0 0)
(-0.1286030534412102 0 0)
(-0.1362859442490195 0 0)
(-0.141627519093484 0 0)
(-0.1425946599606957 0 0)
(-0.1428282195034955 0 0)
(-0.1428521111851428 0 0)
(-0.1419637594894601 0 0)
(-0.1407523260523681 0 0)
(-0.140322470214319 0 0)
(-0.1383876967206633 0 0)
(-0.1313916800545833 0 0)
(-0.1147882608384783 0 0)
(-0.06848539272090698 0 0)
(0.02983163898390689 0 0)
(0.1214096092881381 0 0)
(0.1414379400116093 0 0)
(0.1419433664543721 0 0)
(0.1417068744863779 0 0)
(0.1416330342626531 0 0)
(0.1414640882587024 0 0)
(0.1403436967065816 0 0)
(0.1379666158922912 0 0)
(0.1331332220555523 0 0)
(0.1261103315791263 0 0)
(0.122673917272482 0 0)
(0.1221630644130107 0 0)
(0.1223676055049457 0 0)
(0.1228674149246003 0 0)
(0.1230234291310919 0 0)
(0.1223217388308017 0 0)
(0.1218302806150421 0 0)
(0.1225525792575455 0 0)
(0.1213069733256392 0 0)
(0.1169874633794163 0 0)
(0.1122938319729055 0 0)
(0.08909852844472228 0 0)
(0.02554822881865176 0 0)
(-0.07742412021817734 0 0)
(-0.1320407983497988 0 0)
(-0.1371556551803217 0 0)
(-0.1372139623797562 0 0)
(-0.1372548664196643 0 0)
(-0.1362502320785743 0 0)
(-0.1341115682781691 0 0)
(-0.1293312327063007 0 0)
(-0.1221804719713064 0 0)
(-0.1186789430468768 0 0)
(-0.1181242440019309 0 0)
(-0.1186641496201277 0 0)
(-0.1194141028962538 0 0)
(-0.1193502770445412 0 0)
(-0.119257002426827 0 0)
(-0.1197534642593283 0 0)
(-0.1210225261010276 0 0)
(-0.1187967707820296 0 0)
(-0.1153226458779558 0 0)
(-0.114383818171222 0 0)
(-0.09691032587868038 0 0)
(-0.04935027146374439 0 0)
(0.03869405067457082 0 0)
(0.09493931028749431 0 0)
(0.1023699477264391 0 0)
(0.1027295515788228 0 0)
(0.1022431535879895 0 0)
(0.1017388000470203 0 0)
(0.1020888789958299 0 0)
(0.1027241317865707 0 0)
(0.1028070369853092 0 0)
(0.1042644346313727 0 0)
(0.110266641635112 0 0)
(0.1223627142820051 0 0)
(0.1341904063828029 0 0)
(0.1370499398260962 0 0)
(0.1373580206325418 0 0)
(0.1369861833572224 0 0)
(0.135227798888143 0 0)
(0.13293139551402 0 0)
(0.1263205284066573 0 0)
(0.111241058888596 0 0)
(0.08801637177134285 0 0)
(0.06525790645672956 0 0)
(0.04933443983298348 0 0)
(0.03491493909811678 0 0)
(0.01176904093019876 0 0)
(-0.03663450488530642 0 0)
(-0.107465950845338 0 0)
(-0.1412214212201894 0 0)
(-0.1442682400181752 0 0)
(-0.1434384032299309 0 0)
(-0.1419968946449703 0 0)
(-0.1417762699190045 0 0)
(-0.1404110598653029 0 0)
(-0.1375600755645368 0 0)
(-0.135621555949307 0 0)
(-0.1351288518825898 0 0)
(-0.1335082116079791 0 0)
(-0.1252947708445498 0 0)
(-0.1117222838677382 0 0)
(-0.09415830107422342 0 0)
(-0.08327509988990704 0 0)
(-0.0792357305073375 0 0)
(-0.07736878495480683 0 0)
(-0.07774278820609906 0 0)
(-0.06970452238406635 0 0)
(-0.04281995075682752 0 0)
(0.0127725777607284 0 0)
(0.0589454486389144 0 0)
(0.06843518163268904 0 0)
(0.06963436211669842 0 0)
(0.07034356865857598 0 0)
(0.06990122158749486 0 0)
(0.07357272426653548 0 0)
(0.08542850969401825 0 0)
(0.1071857010074162 0 0)
(0.1215438664715374 0 0)
(0.1236750113858953 0 0)
(0.1240784456245995 0 0)
(0.1237730769418252 0 0)
(0.1231710639806516 0 0)
(0.1229107018465967 0 0)
(0.1240153952520515 0 0)
(0.1251178400149049 0 0)
(0.1244172784234073 0 0)
(0.1237418443769703 0 0)
(0.1244732007681721 0 0)
(0.1229669711094393 0 0)
(0.1150732971409573 0 0)
(0.1017123061972975 0 0)
(0.05425322819764144 0 0)
(-0.04223954391107994 0 0)
(-0.1165458649367325 0 0)
(-0.1283247982268278 0 0)
(-0.128326468114122 0 0)
(-0.1280299636778695 0 0)
(-0.1281314770337886 0 0)
(-0.1272219775875607 0 0)
(-0.1246280528426962 0 0)
(-0.1205179015189669 0 0)
(-0.1173438466227836 0 0)
(-0.1166104952336861 0 0)
(-0.1164258515789568 0 0)
(-0.1166783566877369 0 0)
(-0.11718422051312 0 0)
(-0.117493982565385 0 0)
(-0.1171538129216874 0 0)
(-0.1167168060604105 0 0)
(-0.1169199342198365 0 0)
(-0.1163759551108851 0 0)
(-0.1141175042689921 0 0)
(-0.1104467634205874 0 0)
(-0.09673026373608176 0 0)
(-0.05620224132814987 0 0)
(0.02873314788484111 0 0)
(0.1012711503954202 0 0)
(0.1152163286791346 0 0)
(0.1157067780711235 0 0)
(0.1154737966018584 0 0)
(0.1150776585269878 0 0)
(0.1151696870456272 0 0)
(0.1153726640191166 0 0)
(0.115122057004592 0 0)
(0.1142739620096504 0 0)
(0.1158472754893547 0 0)
(0.1184779433322722 0 0)
(0.1195261528854375 0 0)
(0.1256208402847788 0 0)
(0.1327471813416903 0 0)
(0.1350697058008339 0 0)
(0.1339976526398965 0 0)
(0.1318299296339281 0 0)
(0.1321818859539694 0 0)
(0.1312541425158022 0 0)
(0.1232971836099565 0 0)
(0.107713906681963 0 0)
(0.05205431677820075 0 0)
(-0.05038811905407143 0 0)
(-0.1147055249237794 0 0)
(-0.1222762206474286 0 0)
(-0.1223415843849812 0 0)
(-0.1222377631409192 0 0)
(-0.1221824786988337 0 0)
(-0.121411348136592 0 0)
(-0.1204876839177872 0 0)
(-0.1202005936996848 0 0)
(-0.1202369092780883 0 0)
(-0.1202062082240598 0 0)
(-0.1202816890266288 0 0)
(-0.120811249191049 0 0)
(-0.1215571170287756 0 0)
(-0.1220272233472754 0 0)
(-0.122214019223263 0 0)
(-0.1225040832415248 0 0)
(-0.1230032000113249 0 0)
(-0.1220964064286457 0 0)
(-0.1203190366353076 0 0)
(-0.119424541811139 0 0)
(-0.1097576042039631 0 0)
(-0.08245542089115783 0 0)
(-0.01011776894252717 0 0)
(0.08630426501688164 0 0)
(0.1228061280642147 0 0)
(0.1249423630037826 0 0)
(0.124883732721204 0 0)
(0.1248780703681356 0 0)
(0.1248150718625229 0 0)
(0.1244245010773196 0 0)
(0.1236961592851694 0 0)
(0.1228854303626897 0 0)
(0.1216936569262073 0 0)
(0.1208763139992725 0 0)
(0.1205098439574282 0 0)
(0.1208779652498089 0 0)
(0.1213893274278215 0 0)
(0.1209214630979135 0 0)
(0.1200524091858847 0 0)
(0.1202763165651373 0 0)
(0.1209885796368263 0 0)
(0.1187717544894274 0 0)
(0.1154563703263707 0 0)
(0.1145464073344302 0 0)
(0.09991180811745672 0 0)
(0.05643321639547648 0 0)
(-0.03753461344381268 0 0)
(-0.1186471620127889 0 0)
(-0.1344178055631027 0 0)
(-0.1349909374518526 0 0)
(-0.1348694917181312 0 0)
(-0.1343301085684364 0 0)
(-0.1341843236760401 0 0)
(-0.1343771960980654 0 0)
(-0.1334889612967016 0 0)
(-0.1322084256693923 0 0)
(-0.1317439668351733 0 0)
(-0.1313809153246763 0 0)
(-0.1295251986930391 0 0)
(-0.1277070712688237 0 0)
(-0.1270184062356395 0 0)
(-0.1283040657830755 0 0)
(-0.1278856697714397 0 0)
(-0.1246243625570212 0 0)
(-0.1224331005794895 0 0)
(-0.1226394178694707 0 0)
(-0.1090212569535281 0 0)
(-0.07405185992253258 0 0)
(0.01271822486611485 0 0)
(0.09775973835899601 0 0)
(0.1172404585226695 0 0)
(0.1178070971241304 0 0)
(0.1175817649428497 0 0)
(0.1175198897293191 0 0)
(0.1175566440136679 0 0)
(0.1172356051317904 0 0)
(0.1167123890421307 0 0)
(0.1172043806177614 0 0)
(0.1181246581825552 0 0)
(0.1185073941581865 0 0)
(0.1189744759447747 0 0)
(0.1227121198018593 0 0)
(0.1286965368930274 0 0)
(0.1328165762372393 0 0)
(0.1333610915170436 0 0)
(0.1333568372239593 0 0)
(0.1339410537467798 0 0)
(0.1321332091821154 0 0)
(0.1282077610680994 0 0)
(0.1248733891820029 0 0)
(0.1053002132465525 0 0)
(0.05158950317631662 0 0)
(-0.05143609438308924 0 0)
(-0.1232475418132263 0 0)
(-0.1335387186424875 0 0)
(-0.1338270858620449 0 0)
(-0.1335270992248126 0 0)
(-0.1330498267272969 0 0)
(-0.1326165273714233 0 0)
(-0.1310650511183911 0 0)
(-0.1292726653581629 0 0)
(-0.1286885444019749 0 0)
(-0.1289415316702761 0 0)
(-0.1292492909442733 0 0)
(-0.1287930664423453 0 0)
(-0.1282899013052324 0 0)
(-0.1286987241663381 0 0)
(-0.1287870727592425 0 0)
(-0.1275250341871753 0 0)
(-0.126046542116669 0 0)
(-0.1264471144402673 0 0)
(-0.1251125602089306 0 0)
(-0.1180449253443523 0 0)
(-0.1059520668917232 0 0)
(-0.06124023829318766 0 0)
(0.03324202976009651 0 0)
(0.1153006897856569 0 0)
(0.1313210507965381 0 0)
(0.1318436426987162 0 0)
(0.1320446526015355 0 0)
(0.1316915091704358 0 0)
(0.1308880827641187 0 0)
(0.1301454089831132 0 0)
(0.1288238126973556 0 0)
(0.1276813697666307 0 0)
(0.1272200829194765 0 0)
(0.1272160898237082 0 0)
(0.1277047164140453 0 0)
(0.1274960002508069 0 0)
(0.1265496222271447 0 0)
(0.1259243387315179 0 0)
(0.1266477010156727 0 0)
(0.1258900348907603 0 0)
(0.1237573621129275 0 0)
(0.121836880413144 0 0)
(0.1207619423839472 0 0)
(0.1090553586698744 0 0)
(0.07924026385542499 0 0)
(0.0004521015401242319 0 0)
(-0.09897685842885445 0 0)
(-0.1330515090852103 0 0)
(-0.1348199785425023 0 0)
(-0.1345785472177521 0 0)
(-0.1343551194928957 0 0)
(-0.1343544134141989 0 0)
(-0.1337829170770348 0 0)
(-0.1323156285598163 0 0)
(-0.1306193777977217 0 0)
(-0.129298938114559 0 0)
(-0.1287226781397968 0 0)
(-0.128290198421612 0 0)
(-0.1285929327496621 0 0)
(-0.1292459016372731 0 0)
(-0.128915961663335 0 0)
(-0.1277150400215591 0 0)
(-0.1269104729831763 0 0)
(-0.1278620137549246 0 0)
(-0.1260407675100756 0 0)
(-0.120303131015663 0 0)
(-0.1136806610079623 0 0)
(-0.08158719500380997 0 0)
(-0.003006137803456372 0 0)
(0.09674146702609947 0 0)
(0.1316969504256351 0 0)
(0.1339195290165451 0 0)
(0.1342751478852571 0 0)
(0.133707748996443 0 0)
(0.1330227841052462 0 0)
(0.132878061046557 0 0)
(0.132973670007693 0 0)
(0.1323181948027828 0 0)
(0.1310754124480311 0 0)
(0.1301814349835889 0 0)
(0.1284045566387468 0 0)
(0.1265729114270002 0 0)
(0.1258351808359034 0 0)
(0.1260327982877409 0 0)
(0.1267709313255051 0 0)
(0.1262437047014068 0 0)
(0.1247546740774905 0 0)
(0.1234120658474968 0 0)
(0.1219683624914649 0 0)
(0.1121459350533759 0 0)
(0.08776152431234617 0 0)
(0.0191791629388062 0 0)
(-0.08327215886506638 0 0)
(-0.1299888127540805 0 0)
(-0.1335402186769994 0 0)
(-0.1335344135692778 0 0)
(-0.1335786849775799 0 0)
(-0.1334654468850927 0 0)
(-0.1330769818709592 0 0)
(-0.1325860275568286 0 0)
(-0.1324094081404913 0 0)
(-0.131482585529447 0 0)
(-0.1288714218801738 0 0)
(-0.1257662951576705 0 0)
(-0.1244313681380111 0 0)
(-0.1243022465154214 0 0)
(-0.1241851496675994 0 0)
(-0.1237317659656247 0 0)
(-0.1235913535868308 0 0)
(-0.1237802011560104 0 0)
(-0.1228837168514846 0 0)
(-0.1200358064994148 0 0)
(-0.1154001133672019 0 0)
(-0.09489923744069845 0 0)
(-0.0400770415365965 0 0)
(0.06048694274747982 0 0)
(0.1271102374266513 0 0)
(0.1362546153697905 0 0)
(0.1365274086664732 0 0)
(0.1359906961063255 0 0)
(0.1355394600862757 0 0)
(0.1354032094527643 0 0)
(0.1346171763650054 0 0)
(0.1333167232595468 0 0)
(0.1320708389901283 0 0)
(0.1299358079329333 0 0)
(0.12386317442738 0 0)
(0.1174843405427888 0 0)
(0.1155986235602426 0 0)
(0.116104801249392 0 0)
(0.1166893164262377 0 0)
(0.1157191442778409 0 0)
(0.115068157171248 0 0)
(0.1164247349151494 0 0)
(0.1142655985671381 0 0)
(0.1076546538279169 0 0)
(0.1001239864976209 0 0)
(0.06499450601645995 0 0)
(-0.01761247636499589 0 0)
(-0.1094787325227957 0 0)
(-0.1355227052197306 0 0)
(-0.1368208942664594 0 0)
(-0.1371725023037129 0 0)
(-0.1365995592429345 0 0)
(-0.1356427553940098 0 0)
(-0.1349487730597338 0 0)
(-0.1331043963151614 0 0)
(-0.1269048283514428 0 0)
(-0.1187595249445594 0 0)
(-0.1151833949994017 0 0)
(-0.1150116350199129 0 0)
(-0.1150317655759479 0 0)
(-0.1147813139446491 0 0)
(-0.115512619839369 0 0)
(-0.1167558442687352 0 0)
(-0.1155571956967602 0 0)
(-0.1133795963628186 0 0)
(-0.1126231280414252 0 0)
(-0.1115479910924828 0 0)
(-0.1013000466347314 0 0)
(-0.07884827102247284 0 0)
(-0.01279951046687179 0 0)
(0.08734433593690968 0 0)
(0.1337606283572619 0 0)
(0.1374293948899175 0 0)
(0.1371223442724817 0 0)
(0.1368438076414423 0 0)
(0.1368289536710014 0 0)
(0.1359788532265616 0 0)
(0.1336230788456774 0 0)
(0.1298200112114793 0 0)
(0.1220335904276481 0 0)
(0.1163468290834711 0 0)
(0.1152484953244018 0 0)
(0.115743630048287 0 0)
(0.1166073800319801 0 0)
(0.1165083613430375 0 0)
(0.1158278501490414 0 0)
(0.1158232908431838 0 0)
(0.1166304392760738 0 0)
(0.1141764769205624 0 0)
(0.109120144565402 0 0)
(0.1054251846183423 0 0)
(0.08153943712118103 0 0)
(0.01904893710937512 0 0)
(-0.0812696997046848 0 0)
(-0.1325954167207409 0 0)
(-0.137636858748684 0 0)
(-0.1380719907279942 0 0)
(-0.1374181058588659 0 0)
(-0.1364238419955578 0 0)
(-0.1359550564409755 0 0)
(-0.1340168033975793 0 0)
(-0.1279182160418493 0 0)
(-0.1198685510358773 0 0)
(-0.1160475729059364 0 0)
(-0.1156522911868432 0 0)
(-0.1154440956808109 0 0)
(-0.1155269365273515 0 0)
(-0.1165600183563486 0 0)
(-0.1177616861451461 0 0)
(-0.1166065672683781 0 0)
(-0.1147497611402164 0 0)
(-0.1146958030450215 0 0)
(-0.113422756596836 0 0)
(-0.1043277523774948 0 0)
(-0.08663518598700665 0 0)
(-0.02929304370139946 0 0)
(0.07046703392274913 0 0)
(0.1293366495311077 0 0)
(0.1358492791728676 0 0)
(0.1357948756369459 0 0)
(0.135750537294197 0 0)
(0.1355522500827321 0 0)
(0.1345921369463706 0 0)
(0.1327297574323878 0 0)
(0.1296355545349841 0 0)
(0.1224687877347954 0 0)
(0.1165286979961113 0 0)
(0.1152704566085028 0 0)
(0.1158745665356815 0 0)
(0.116651857898166 0 0)
(0.1162733036511826 0 0)
(0.116082151751806 0 0)
(0.1166465430048989 0 0)
(0.1169447565785316 0 0)
(0.1145261053543093 0 0)
(0.1105304578071847 0 0)
(0.1081738703200361 0 0)
(0.08885502627247056 0 0)
(0.03801156088045931 0 0)
(-0.05919571648160794 0 0)
(-0.1260689301284559 0 0)
(-0.1357589142118581 0 0)
(-0.1362111411108821 0 0)
(-0.1355461132508939 0 0)
(-0.1346891157096396 0 0)
(-0.1343630477698394 0 0)
(-0.1322002783284791 0 0)
(-0.1265565204655891 0 0)
(-0.1194223305181407 0 0)
(-0.1159151615826376 0 0)
(-0.1153232030091972 0 0)
(-0.1148554862833656 0 0)
(-0.1153621857700586 0 0)
(-0.1165603269725918 0 0)
(-0.1175446790214264 0 0)
(-0.1162636496840609 0 0)
(-0.1148059899085677 0 0)
(-0.1155253302262767 0 0)
(-0.1138855303737368 0 0)
(-0.1061551261135028 0 0)
(-0.09394061676610026 0 0)
(-0.04852926018612023 0 0)
(0.04471436011939593 0 0)
(0.120501249617893 0 0)
(0.1339033586388093 0 0)
(0.1342242651318085 0 0)
(0.1343688421450427 0 0)
(0.1339620271544909 0 0)
(0.1325504418513113 0 0)
(0.1305005070812451 0 0)
(0.1262155958155026 0 0)
(0.1196097367829259 0 0)
(0.1160795479322072 0 0)
(0.1154970539243634 0 0)
(0.11620390017502 0 0)
(0.1168088299755094 0 0)
(0.1162426066790787 0 0)
(0.1160714927928092 0 0)
(0.1168633370075882 0 0)
(0.1177017413889177 0 0)
(0.1163462310890186 0 0)
(0.1137995860411325 0 0)
(0.11099134822524 0 0)
(0.09337014410142573 0 0)
(0.05042344902277612 0 0)
(-0.03894525656865849 0 0)
(-0.116830454672776 0 0)
(-0.128636888473697 0 0)
(-0.1255377872222057 0 0)
(-0.1231635752685687 0 0)
(-0.1225599310103568 0 0)
(-0.1286625534910076 0 0)
(-0.1384431791084389 0 0)
(-0.1415842433163703 0 0)
(-0.1383265524218883 0 0)
(-0.1362313764081116 0 0)
(-0.1171628268790331 0 0)
(-0.08749338853639545 0 0)
(-0.07176152351520207 0 0)
(-0.06818745047086905 0 0)
(-0.06658741087861528 0 0)
(-0.06725311304881115 0 0)
(-0.06744180511042554 0 0)
(-0.06386454563549041 0 0)
(-0.06213088152561191 0 0)
(-0.06403652504132291 0 0)
(-0.05772885662732678 0 0)
(-0.03013350005042767 0 0)
(0.04780315883433185 0 0)
(0.1506021519350177 0 0)
(0.1922975972971844 0 0)
(0.2119581489857823 0 0)
(0.2137061953802482 0 0)
(0.2087985675276765 0 0)
(0.1870087429698326 0 0)
(0.1382101680270607 0 0)
(0.09863582533373132 0 0)
(0.0800672424798832 0 0)
(0.07143826017655433 0 0)
(0.06873905068115542 0 0)
(0.06870618608857459 0 0)
(0.06819572327919732 0 0)
(0.06883546044430429 0 0)
(0.06868470703012314 0 0)
(0.07204370278704121 0 0)
(0.07754060049244475 0 0)
(0.08207998373491449 0 0)
(0.08508913174742848 0 0)
(0.08343902102860547 0 0)
(0.07127749183690421 0 0)
(0.03731384272037236 0 0)
(-0.04836647546903387 0 0)
(-0.1607583694198672 0 0)
(-0.2191137020454546 0 0)
(-0.235527869738463 0 0)
(-0.2349069507731198 0 0)
(-0.2243709110393642 0 0)
(-0.1938737530076736 0 0)
(-0.1370496999610752 0 0)
(-0.09755236009598213 0 0)
(-0.07983033444320412 0 0)
(-0.07333109156557763 0 0)
(-0.07234802040190222 0 0)
(-0.074399475705554 0 0)
(-0.07578133872292543 0 0)
(-0.07661533219148767 0 0)
(-0.07574804027353567 0 0)
(-0.07602013721735042 0 0)
(-0.07862383074078583 0 0)
(-0.08102290788159668 0 0)
(-0.08235070996913764 0 0)
(-0.08039671220131166 0 0)
(-0.07074669779273449 0 0)
(-0.04740705845987322 0 0)
(0.01483172987499917 0 0)
(0.1212101508308107 0 0)
(0.1919990115369001 0 0)
(0.2108241204832727 0 0)
(0.2171710935721393 0 0)
(0.210130090292611 0 0)
(0.1946904450129758 0 0)
(0.1545016236089753 0 0)
(0.1076579379635543 0 0)
(0.08282244504942732 0 0)
(0.07103902724933971 0 0)
(0.06555269386484978 0 0)
(0.06496224953854229 0 0)
(0.06686294569825407 0 0)
(0.0675105380440915 0 0)
(0.06632862939515562 0 0)
(0.06521123769059588 0 0)
(0.06617002839936469 0 0)
(0.07049278617124186 0 0)
(0.07345165370589124 0 0)
(0.07445655544400702 0 0)
(0.07097368197121269 0 0)
(0.05050581682871202 0 0)
(-0.00771384361557907 0 0)
(-0.1160898691542857 0 0)
(-0.1984330996216642 0 0)
(-0.2233460237819713 0 0)
(-0.2310676151034578 0 0)
(-0.2248566364840767 0 0)
(-0.208005588646602 0 0)
(-0.169307662482987 0 0)
(-0.1195592151343434 0 0)
(-0.08912682193531632 0 0)
(-0.07631349107586936 0 0)
(-0.07261473744269061 0 0)
(-0.07355256835490984 0 0)
(-0.07663207470089205 0 0)
(-0.07864094501630134 0 0)
(-0.07839135472603312 0 0)
(-0.07778506519578376 0 0)
(-0.07868161006329594 0 0)
(-0.08081259065186552 0 0)
(-0.08011014758600322 0 0)
(-0.07795774594540553 0 0)
(-0.07618960589544087 0 0)
(-0.05934094498604529 0 0)
(-0.01649326389906706 0 0)
(0.07688548532162132 0 0)
(0.1733978244127089 0 0)
(0.2059808446457012 0 0)
(0.209881781734167 0 0)
)
;

boundaryField
{
    inlet
    {
        type            zeroGradient;
    }
    outlet
    {
        type            pressureInletOutletVelocity;
        value           uniform (0.209881781734167 0 0);
    }
    frontAndBack
    {
        type            empty;
    }
}


// ************************************************************************* //
