/*--------------------------------*- C++ -*----------------------------------*\
| =========                 |                                                 |
| \\      /  F ield         | OpenFOAM: The Open Source CFD Toolbox           |
|  \\    /   O peration     | Version:  v2012                                 |
|   \\  /    A nd           | Website:  www.openfoam.com                      |
|    \\/     M anipulation  |                                                 |
\*---------------------------------------------------------------------------*/
FoamFile
{
    version     2.0;
    format      ascii;
    class       volVectorField;
    location    "0.008";
    object      UMean;
}
// * * * * * * * * * * * * * * * * * * * * * * * * * * * * * * * * * * * * * //

dimensions      [0 1 -1 0 0 0 0];


internalField   nonuniform List<vector> 
1000
(
(-1.907307034772731e-05 0 0)
(-3.625472886077112e-05 0 0)
(-1.422300983052678e-06 0 0)
(4.479926097102985e-05 0 0)
(0.0001217016523384357 0 0)
(0.0001783183762406856 0 0)
(0.0002995061403407275 0 0)
(0.0003886513984983525 0 0)
(0.0004451519033254311 0 0)
(0.0005681513773583267 0 0)
(0.0006620883928644339 0 0)
(0.000785846180204463 0 0)
(0.0009198331749676812 0 0)
(0.001033160921759117 0 0)
(0.001108028375531436 0 0)
(0.001237264747740888 0 0)
(0.001294882365325143 0 0)
(0.001337249879056517 0 0)
(0.001391677053436374 0 0)
(0.001536286515248699 0 0)
(0.001630188055384173 0 0)
(0.001626162811619418 0 0)
(0.001652047451374089 0 0)
(0.001664425065070314 0 0)
(0.00160547273138511 0 0)
(0.001549649182923081 0 0)
(0.001494290679947575 0 0)
(0.001516866051215693 0 0)
(0.001425350670071064 0 0)
(0.001313627447498034 0 0)
(0.001285383006765966 0 0)
(0.001189309304602005 0 0)
(0.00107054037871569 0 0)
(0.0009471326576187594 0 0)
(0.0008403977169778184 0 0)
(0.0007461529212239554 0 0)
(0.0005645455513004209 0 0)
(0.0004851383279847837 0 0)
(0.0004172770535488192 0 0)
(0.0003460578229206883 0 0)
(0.000259844914751699 0 0)
(0.0001668379118878889 0 0)
(7.626744591933548e-05 0 0)
(2.347696046927592e-05 0 0)
(-2.995574715970744e-05 0 0)
(-5.492113723228662e-05 0 0)
(-2.516517271552625e-05 0 0)
(-1.714693914584404e-05 0 0)
(4.667039544860013e-05 0 0)
(5.459648553542262e-05 0 0)
(9.17009678795796e-05 0 0)
(0.0001416740378556468 0 0)
(0.0002322346546300344 0 0)
(0.0003090224560281302 0 0)
(0.000420616123595764 0 0)
(0.0005424980004621499 0 0)
(0.0007020020872921146 0 0)
(0.0007270187751369739 0 0)
(0.0009033259129977487 0 0)
(0.0009930475605853769 0 0)
(0.001089673114422754 0 0)
(0.001184970218202209 0 0)
(0.001351035601079581 0 0)
(0.001412641870058799 0 0)
(0.001434939598975118 0 0)
(0.001540361445146344 0 0)
(0.001633534655612834 0 0)
(0.001662155038387159 0 0)
(0.001671983845965229 0 0)
(0.001750071368599013 0 0)
(0.001682723186283882 0 0)
(0.001574992081438499 0 0)
(0.001557705579913041 0 0)
(0.00156459701574377 0 0)
(0.00147971740795553 0 0)
(0.001374549287860653 0 0)
(0.001382914847545736 0 0)
(0.00127039155248722 0 0)
(0.00106896159959589 0 0)
(0.0009864046525185782 0 0)
(0.0009107569995843934 0 0)
(0.0007239303805818816 0 0)
(0.0006778771925919414 0 0)
(0.0005921475743090976 0 0)
(0.0004142269945205182 0 0)
(0.0002962414141938 0 0)
(0.0003018013090362663 0 0)
(0.0001231374094786486 0 0)
(2.267021764229637e-05 0 0)
(6.56361202963546e-05 0 0)
(2.767907479264083e-05 0 0)
(-0.0001050427950527087 0 0)
(-5.327808263628154e-05 0 0)
(-1.82186145801482e-05 0 0)
(-7.277682988205688e-05 0 0)
(-4.100556489265492e-05 0 0)
(5.079898820286726e-05 0 0)
(0.0001205602421254058 0 0)
(0.0001895150426950486 0 0)
(0.0002983154929997836 0 0)
(0.0003933244711194173 0 0)
(0.0005093159914759352 0 0)
(0.0005542451552294964 0 0)
(0.0007155289709449379 0 0)
(0.0008478612171815679 0 0)
(0.0009586912313533297 0 0)
(0.001063607047786745 0 0)
(0.001205883257092857 0 0)
(0.001260634737729855 0 0)
(0.001322412874074933 0 0)
(0.001454227839553852 0 0)
(0.001506640387279193 0 0)
(0.00155569723965292 0 0)
(0.001680528493670268 0 0)
(0.001744190501023225 0 0)
(0.001681437731797786 0 0)
(0.001746911388470524 0 0)
(0.001711844242023316 0 0)
(0.001651137708342333 0 0)
(0.001559332518985793 0 0)
(0.001517249960263134 0 0)
(0.001442581289418903 0 0)
(0.001340973353092302 0 0)
(0.001251724940942857 0 0)
(0.00116624639357858 0 0)
(0.0010221948127642 0 0)
(0.000907607937198108 0 0)
(0.000782596102758923 0 0)
(0.0006470366919020139 0 0)
(0.0005274430632596945 0 0)
(0.0004033841633437807 0 0)
(0.0003676199290644823 0 0)
(0.0002493803747909584 0 0)
(0.0001465018017322858 0 0)
(7.524912389165274e-05 0 0)
(-6.605361811655874e-06 0 0)
(-0.0001024265893780996 0 0)
(-0.0001728871176510248 0 0)
(-0.0001498020803138507 0 0)
(-0.0001032168627168205 0 0)
(-0.0001070781246761843 0 0)
(-6.024912410776774e-05 0 0)
(3.317133516662598e-05 0 0)
(1.434645276457934e-05 0 0)
(5.351286255478878e-05 0 0)
(0.0002052594259925772 0 0)
(0.0003147384081666735 0 0)
(0.0003821279455954593 0 0)
(0.0005376390393949271 0 0)
(0.0007018044932233311 0 0)
(0.0007537395326660815 0 0)
(0.000885826226225184 0 0)
(0.001003284074302382 0 0)
(0.001093537072035927 0 0)
(0.00117958244727201 0 0)
(0.001319442399017932 0 0)
(0.001387986288519277 0 0)
(0.00151041775444196 0 0)
(0.001555328552767501 0 0)
(0.001650534890572296 0 0)
(0.001719529759604928 0 0)
(0.001717092850660986 0 0)
(0.001688917558754365 0 0)
(0.001715358458705118 0 0)
(0.00161619330796351 0 0)
(0.001547399727901562 0 0)
(0.001519859543847445 0 0)
(0.001456396959175501 0 0)
(0.001367161627086869 0 0)
(0.001296957755375661 0 0)
(0.001198281015455858 0 0)
(0.001053724671366942 0 0)
(0.0009571413337680417 0 0)
(0.0008248689883150381 0 0)
(0.0006781746618036178 0 0)
(0.0005796985267587548 0 0)
(0.0004784718029807669 0 0)
(0.0003422817547382566 0 0)
(0.0002651000011497595 0 0)
(0.0001676391141738143 0 0)
(6.404992912392614e-05 0 0)
(-2.076231419011776e-05 0 0)
(-0.000106715820672091 0 0)
(-0.0001522058682684781 0 0)
(-0.0001502797122715958 0 0)
(-0.0001345807905220137 0 0)
(-8.521567452058169e-05 0 0)
(-6.355144432951932e-05 0 0)
(-4.389968449461955e-05 0 0)
(1.085994991970322e-05 0 0)
(8.722439320679086e-05 0 0)
(0.0001691385958170249 0 0)
(0.0002842014155205279 0 0)
(0.0004327473029221327 0 0)
(0.0005441270237679695 0 0)
(0.0006271933552919166 0 0)
(0.0007550334780224269 0 0)
(0.0008964629359187503 0 0)
(0.0009753851590309805 0 0)
(0.001078963752317127 0 0)
(0.00120481980835247 0 0)
(0.001314559393007114 0 0)
(0.001411336240543838 0 0)
(0.001502872730942928 0 0)
(0.001599993102656379 0 0)
(0.001655609482085716 0 0)
(0.001726141136918304 0 0)
(0.001753030623824181 0 0)
(0.001789054155974738 0 0)
(0.001795526716280304 0 0)
(0.001733959059150299 0 0)
(0.001659461864322348 0 0)
(0.001571525753673331 0 0)
(0.001473395192300901 0 0)
(0.001379196989026656 0 0)
(0.001292751589680245 0 0)
(0.001196084902852287 0 0)
(0.001088424816560033 0 0)
(0.0009810889362353817 0 0)
(0.0008610571568410164 0 0)
(0.0007322999331107701 0 0)
(0.0005982723430562255 0 0)
(0.0004825059202346981 0 0)
(0.0003512331924792199 0 0)
(0.0002432711048141118 0 0)
(0.0001460898115621072 0 0)
(5.310924748723215e-05 0 0)
(-3.740160015434742e-05 0 0)
(-0.0001081851439336091 0 0)
(-0.0001933395948197071 0 0)
(-0.0002585890175643712 0 0)
(-0.0003130889167279828 0 0)
(-0.0002912887313688308 0 0)
(-0.0002259853272220289 0 0)
(-0.0001410494673490809 0 0)
(-4.598439800669105e-05 0 0)
(5.895031990878808e-05 0 0)
(0.0001364974342521873 0 0)
(0.0002347989232991341 0 0)
(0.0003373469360459531 0 0)
(0.0004371596496325349 0 0)
(0.0005397196558117197 0 0)
(0.0006686388999180811 0 0)
(0.0007944981701434359 0 0)
(0.0009082743784928022 0 0)
(0.001035769740979913 0 0)
(0.001155563364000083 0 0)
(0.001279491196051039 0 0)
(0.001382055830767618 0 0)
(0.001483134399939268 0 0)
(0.001555659398302718 0 0)
(0.001636168390660769 0 0)
(0.001688398137806078 0 0)
(0.001763244592956602 0 0)
(0.001810604206080338 0 0)
(0.001851356399846026 0 0)
(0.001820604074949714 0 0)
(0.001735251760816862 0 0)
(0.001621236462264102 0 0)
(0.00151381741640931 0 0)
(0.001404543447978445 0 0)
(0.001289343751643803 0 0)
(0.001185303335732127 0 0)
(0.001076438128234471 0 0)
(0.000972799100197657 0 0)
(0.0008593400998896313 0 0)
(0.0007529178387915893 0 0)
(0.0006331622927453505 0 0)
(0.0005202743391515648 0 0)
(0.0003925483088653817 0 0)
(0.0002823840630171247 0 0)
(0.0001569118271235414 0 0)
(4.903332836660016e-05 0 0)
(-7.691030786601596e-05 0 0)
(-0.0001678985398706246 0 0)
(-0.0002524402816648514 0 0)
(-0.0002675187015629972 0 0)
(-0.0002596410575559348 0 0)
(-0.0002128488155750475 0 0)
(-0.00018090392576218 0 0)
(-0.0001269637838634306 0 0)
(-8.849954735007615e-05 0 0)
(-7.177825644314999e-06 0 0)
(8.141653013520751e-05 0 0)
(0.0002007125062261647 0 0)
(0.000300322514645636 0 0)
(0.000425128312114836 0 0)
(0.0005265977093353223 0 0)
(0.0006467582177403467 0 0)
(0.000751442388127776 0 0)
(0.0008752922228891465 0 0)
(0.0009794695507439795 0 0)
(0.001105632170425022 0 0)
(0.001214093385519437 0 0)
(0.001340807206749244 0 0)
(0.001445333629333563 0 0)
(0.001569207008047674 0 0)
(0.001670671578390679 0 0)
(0.001772258766226541 0 0)
(0.001820578315189098 0 0)
(0.001818034069605865 0 0)
(0.001760807318649759 0 0)
(0.001707123470271031 0 0)
(0.001639182506691654 0 0)
(0.001585636864706731 0 0)
(0.001511430362525984 0 0)
(0.001443480236112273 0 0)
(0.001343348794816425 0 0)
(0.001246101278914628 0 0)
(0.001130144181769978 0 0)
(0.001030386834913078 0 0)
(0.0009146610619999495 0 0)
(0.0008132951047557723 0 0)
(0.0006924943203553268 0 0)
(0.0005839969228403844 0 0)
(0.0004563142099668209 0 0)
(0.000344135406166875 0 0)
(0.0002172331938495159 0 0)
(0.0001060925330310844 0 0)
(-2.533591878688819e-06 0 0)
(-8.216221419068609e-05 0 0)
(-0.0001259885283392326 0 0)
(-0.0001382280820739892 0 0)
(-0.0001463252881002297 0 0)
(-0.0001505793721235584 0 0)
(-0.0001546676458338696 0 0)
(-0.0001471530257545873 0 0)
(-0.000118045549549194 0 0)
(-3.909740598622405e-05 0 0)
(6.655802240174071e-05 0 0)
(0.0001763219453241803 0 0)
(0.0002869843696910241 0 0)
(0.0003961886343261913 0 0)
(0.0005105380398142904 0 0)
(0.0006218040244158438 0 0)
(0.0007419297506632639 0 0)
(0.0008644728600578647 0 0)
(0.0009953566071477385 0 0)
(0.001122387931136139 0 0)
(0.001253073966079515 0 0)
(0.001379164429094759 0 0)
(0.001508696851373067 0 0)
(0.001635873761050462 0 0)
(0.001762196385169283 0 0)
(0.001885888360767795 0 0)
(0.001999599832642999 0 0)
(0.002092734764212564 0 0)
(0.002121562525339697 0 0)
(0.002060436458111383 0 0)
(0.001938947413242499 0 0)
(0.001814857064635522 0 0)
(0.001685705903196128 0 0)
(0.001560644998967371 0 0)
(0.001431754131583772 0 0)
(0.001307913999211792 0 0)
(0.001179759728513749 0 0)
(0.001060119085756591 0 0)
(0.0009404849630353931 0 0)
(0.0008319756452333449 0 0)
(0.000718164634385026 0 0)
(0.0006126562629586021 0 0)
(0.0004976177830898366 0 0)
(0.0003931651825088552 0 0)
(0.0002763048200835632 0 0)
(0.0001724876690787123 0 0)
(5.511019032189041e-05 0 0)
(-4.5816971903174e-05 0 0)
(-0.0001619452389790022 0 0)
(-0.0002604112904653059 0 0)
(-0.0003591839471278423 0 0)
(-0.000416151028989002 0 0)
(-0.0004074223695788818 0 0)
(-0.0003078366522807617 0 0)
(-0.0001896352624745543 0 0)
(-6.183447671139408e-05 0 0)
(5.77903318489388e-05 0 0)
(0.0001836857438060363 0 0)
(0.0003038623015557296 0 0)
(0.0004253465767835515 0 0)
(0.0005368560253958082 0 0)
(0.0006464459895491272 0 0)
(0.0007530197365774479 0 0)
(0.0008598888555139034 0 0)
(0.0009671072971454672 0 0)
(0.001073666376579896 0 0)
(0.001183184070461544 0 0)
(0.001290547767966965 0 0)
(0.001400196428210381 0 0)
(0.001505345210383021 0 0)
(0.001615055395794974 0 0)
(0.001717977050676729 0 0)
(0.001814561072051265 0 0)
(0.001890585887600384 0 0)
(0.001901886741536468 0 0)
(0.001844631508096672 0 0)
(0.001752229194436793 0 0)
(0.001663806920126971 0 0)
(0.001568677156478934 0 0)
(0.001480337896255873 0 0)
(0.001385021716960656 0 0)
(0.001296938760450417 0 0)
(0.001201485569019913 0 0)
(0.001112005571274221 0 0)
(0.001012405193652417 0 0)
(0.0009142975762295238 0 0)
(0.0007945734911174617 0 0)
(0.0006769738255436705 0 0)
(0.0005482300705473782 0 0)
(0.0004302196912979362 0 0)
(0.0003022807275925543 0 0)
(0.0001854816182968906 0 0)
(6.329801899410871e-05 0 0)
(-4.168149256719109e-05 0 0)
(-0.0001395950777880544 0 0)
(-0.0002082965692535924 0 0)
(-0.0002659131663826303 0 0)
(-0.0003045004822987883 0 0)
(-0.0003336286726437714 0 0)
(-0.0003298806160913701 0 0)
(-0.0002717225944084802 0 0)
(-0.0001600145694400461 0 0)
(-3.107207038933874e-05 0 0)
(9.544501044012361e-05 0 0)
(0.0002272104700651606 0 0)
(0.0003514198077822952 0 0)
(0.0004824177000062979 0 0)
(0.0006010301962068393 0 0)
(0.0007312788712182361 0 0)
(0.0008461721065526856 0 0)
(0.0009749808321726153 0 0)
(0.001081876916456325 0 0)
(0.00120317089349712 0 0)
(0.001285063248725531 0 0)
(0.001376959240989868 0 0)
(0.001436942217294929 0 0)
(0.001522349947052289 0 0)
(0.001579006382122752 0 0)
(0.001658500383538125 0 0)
(0.001700338823729182 0 0)
(0.001734702263845384 0 0)
(0.001689324893786035 0 0)
(0.001645485579157106 0 0)
(0.001569059409419359 0 0)
(0.001521348754659828 0 0)
(0.001444280524078473 0 0)
(0.001393246033115755 0 0)
(0.001310528935454305 0 0)
(0.001239919620851928 0 0)
(0.001123871103507853 0 0)
(0.001026279360109063 0 0)
(0.0009023435732907389 0 0)
(0.0008039437654077064 0 0)
(0.0006814993610883293 0 0)
(0.0005818496087712007 0 0)
(0.0004600321195492785 0 0)
(0.0003593663963891669 0 0)
(0.0002387685087708337 0 0)
(0.0001347878424299115 0 0)
(1.423298167747692e-05 0 0)
(-8.768060260005457e-05 0 0)
(-0.0002006863639811672 0 0)
(-0.0002984895126458372 0 0)
(-0.000376847121237431 0 0)
(-0.0003925683047850332 0 0)
(-0.0003224061605364387 0 0)
(-0.00021127917761089 0 0)
(-9.486192528327558e-05 0 0)
(1.988147918017014e-05 0 0)
(0.0001366824365181892 0 0)
(0.0002495186483190771 0 0)
(0.0003654653004726126 0 0)
(0.0004741454855002409 0 0)
(0.0005836251663117948 0 0)
(0.0006859182833162405 0 0)
(0.0007932191687759126 0 0)
(0.0008953863866002272 0 0)
(0.001003144150671123 0 0)
(0.00110541613157962 0 0)
(0.001213371153182477 0 0)
(0.001316104824885661 0 0)
(0.001423706974077053 0 0)
(0.001525727249448823 0 0)
(0.0016314425224318 0 0)
(0.001731958116014099 0 0)
(0.001827983784569177 0 0)
(0.001903141078505199 0 0)
(0.001925764019318477 0 0)
(0.001869067998996678 0 0)
(0.001769951461931054 0 0)
(0.001666649225459468 0 0)
(0.001561730462797104 0 0)
(0.001458923927753059 0 0)
(0.001353232243976514 0 0)
(0.001251831154998089 0 0)
(0.001146086010268342 0 0)
(0.001045086185221714 0 0)
(0.0009372521295451274 0 0)
(0.0008365365486699219 0 0)
(0.0007265197415911472 0 0)
(0.0006191087589073957 0 0)
(0.0004992101549259364 0 0)
(0.0003835825212007288 0 0)
(0.0002593154230415963 0 0)
(0.0001427293111482444 0 0)
(1.751105455734804e-05 0 0)
(-9.374791678973844e-05 0 0)
(-0.000212112906338762 0 0)
(-0.0003176046932458958 0 0)
(-0.0003979695226572221 0 0)
(-0.000408218640787139 0 0)
(-0.000333781650459679 0 0)
(-0.0002249825516186183 0 0)
(-0.0001152124254184953 0 0)
(-3.724057347271588e-06 0 0)
(0.0001056542277180652 0 0)
(0.0002165278596875691 0 0)
(0.0003248225051251413 0 0)
(0.0004342455688502607 0 0)
(0.0005413860158616303 0 0)
(0.0006504637005615922 0 0)
(0.0007578798154803129 0 0)
(0.0008674564114803508 0 0)
(0.0009752812207957171 0 0)
(0.001085592131845355 0 0)
(0.001194957980001098 0 0)
(0.001305839143605653 0 0)
(0.001415445854993278 0 0)
(0.00152568668468081 0 0)
(0.001635463287024665 0 0)
(0.001744263143776034 0 0)
(0.001846639041714309 0 0)
(0.001940751944888367 0 0)
(0.0019893858785333 0 0)
(0.00196539310445832 0 0)
(0.001866473438627578 0 0)
(0.001758185767891547 0 0)
(0.001642112404526989 0 0)
(0.001533215905629955 0 0)
(0.001417348568000816 0 0)
(0.001309077523509326 0 0)
(0.00119333892359782 0 0)
(0.00108597737234377 0 0)
(0.0009721058914813192 0 0)
(0.000866858977727914 0 0)
(0.0007541070960503302 0 0)
(0.0006489302084407754 0 0)
(0.0005364101387606241 0 0)
(0.0004313760890883904 0 0)
(0.0003186986515730974 0 0)
(0.0002132301735006112 0 0)
(0.0001020460724064483 0 0)
(-1.333628239559444e-06 0 0)
(-0.0001120488538538941 0 0)
(-0.0002133712223105179 0 0)
(-0.0003125603510464403 0 0)
(-0.000390242561627704 0 0)
(-0.0004098198339752576 0 0)
(-0.0003422450326798517 0 0)
(-0.0002258082309793052 0 0)
(-0.0001059404054651329 0 0)
(1.709172054522039e-05 0 0)
(0.0001365696669552558 0 0)
(0.0002603792048795401 0 0)
(0.0003784300209663094 0 0)
(0.00050143775297446 0 0)
(0.000618388357462591 0 0)
(0.0007417053431287624 0 0)
(0.0008559370003941052 0 0)
(0.0009770644020593725 0 0)
(0.001088988301854026 0 0)
(0.001209685352998841 0 0)
(0.001319587594462559 0 0)
(0.001438368071574531 0 0)
(0.001546909461325787 0 0)
(0.001667332390059503 0 0)
(0.00177070225212348 0 0)
(0.001879049445882569 0 0)
(0.001966779139971909 0 0)
(0.002005099968136826 0 0)
(0.001958367781663885 0 0)
(0.001860498444965554 0 0)
(0.001754331795479096 0 0)
(0.001648839239010207 0 0)
(0.001542009938369698 0 0)
(0.001437261616470631 0 0)
(0.00133101648117938 0 0)
(0.001226474908964529 0 0)
(0.001119979810127164 0 0)
(0.001014959852088199 0 0)
(0.0009088963982249986 0 0)
(0.0008018777727774045 0 0)
(0.0006925521992897189 0 0)
(0.0005812257066218528 0 0)
(0.0004633309294402633 0 0)
(0.0003431708527674955 0 0)
(0.0002220210672578533 0 0)
(0.0001022518403964256 0 0)
(-1.65197673439004e-05 0 0)
(-0.0001353361543314589 0 0)
(-0.0002513009247994984 0 0)
(-0.0003551538747592184 0 0)
(-0.0004382522851641952 0 0)
(-0.0004461488679669342 0 0)
(-0.0003717025306265516 0 0)
(-0.0002518300295272153 0 0)
(-0.0001351569566401529 0 0)
(-1.187047322106633e-05 0 0)
(0.0001051449980049094 0 0)
(0.0002276006820937167 0 0)
(0.0003431056930823703 0 0)
(0.0004631349214125042 0 0)
(0.0005766004149606912 0 0)
(0.0006950391444737185 0 0)
(0.0008083446135397137 0 0)
(0.0009264943973236494 0 0)
(0.001040398537907544 0 0)
(0.001158491295271026 0 0)
(0.001271437929144787 0 0)
(0.001388162133244855 0 0)
(0.00150139478719217 0 0)
(0.001617679258165201 0 0)
(0.001727735753955758 0 0)
(0.001838828828760413 0 0)
(0.001943571889876434 0 0)
(0.002023096842486148 0 0)
(0.002050217536008486 0 0)
(0.001983013162991488 0 0)
(0.001873348199782738 0 0)
(0.00175187545301483 0 0)
(0.001636056763456089 0 0)
(0.001514745085420943 0 0)
(0.001399328994798249 0 0)
(0.001278480336903645 0 0)
(0.001165146152993764 0 0)
(0.001046696145728492 0 0)
(0.0009351568733265407 0 0)
(0.0008170437589456647 0 0)
(0.0007056618645427051 0 0)
(0.0005882145167672374 0 0)
(0.0004772172986983091 0 0)
(0.0003592158604412457 0 0)
(0.000249158939656421 0 0)
(0.0001331408418454788 0 0)
(2.460502492999258e-05 0 0)
(-9.180259726600162e-05 0 0)
(-0.0001969852569856925 0 0)
(-0.0003035067373053063 0 0)
(-0.0003934314681686104 0 0)
(-0.0004402180707481327 0 0)
(-0.0004022401164647173 0 0)
(-0.0002963620131029697 0 0)
(-0.0001754925988988991 0 0)
(-5.45285997702665e-05 0 0)
(6.724594367010115e-05 0 0)
(0.0001875784601987981 0 0)
(0.0003088646001485079 0 0)
(0.0004281619426029476 0 0)
(0.0005481505486029068 0 0)
(0.0006638412101430548 0 0)
(0.0007811680270615532 0 0)
(0.0008955486011079113 0 0)
(0.001013230949859069 0 0)
(0.001127756043168057 0 0)
(0.001244856221192981 0 0)
(0.001358916277885391 0 0)
(0.00147637386989212 0 0)
(0.001589609053914157 0 0)
(0.001703929261679339 0 0)
(0.001814520238663542 0 0)
(0.001925270345992369 0 0)
(0.002012585937051444 0 0)
(0.002068470219815418 0 0)
(0.00202699384032833 0 0)
(0.001928670367739748 0 0)
(0.001803015368661234 0 0)
(0.001688726911139243 0 0)
(0.001562956312061759 0 0)
(0.001448477861253203 0 0)
(0.001323298626857073 0 0)
(0.001209371368216037 0 0)
(0.00108557787791316 0 0)
(0.0009718566963269382 0 0)
(0.0008489858187766177 0 0)
(0.0007377292336190428 0 0)
(0.0006187540771121543 0 0)
(0.0005098126938256442 0 0)
(0.0003915913762303762 0 0)
(0.0002822546787018388 0 0)
(0.0001651054513980533 0 0)
(5.646966572818641e-05 0 0)
(-6.072315769351942e-05 0 0)
(-0.0001669312331156614 0 0)
(-0.0002761045852940288 0 0)
(-0.0003692149744392457 0 0)
(-0.0004281835024929494 0 0)
(-0.00040720029168184 0 0)
(-0.0003108382422675404 0 0)
(-0.0001908802357086718 0 0)
(-7.133197749239074e-05 0 0)
(4.994260581293712e-05 0 0)
(0.0001691297482253513 0 0)
(0.0002898938175780817 0 0)
(0.0004089813889525363 0 0)
(0.0005293085019772961 0 0)
(0.0006473153591799266 0 0)
(0.0007654641164429747 0 0)
(0.000880221266763003 0 0)
(0.0009933655197874398 0 0)
(0.001104979688280845 0 0)
(0.0012167119140783 0 0)
(0.001328546704979541 0 0)
(0.001440248644490334 0 0)
(0.001551795584852447 0 0)
(0.001661747194517475 0 0)
(0.001772791938147228 0 0)
(0.00187961299817185 0 0)
(0.001976649978332102 0 0)
(0.002048069622006378 0 0)
(0.002047851444359993 0 0)
(0.001965354441196357 0 0)
(0.001844506205773848 0 0)
(0.001723667527578432 0 0)
(0.00159960765180218 0 0)
(0.001478350152313224 0 0)
(0.001355166623094305 0 0)
(0.001235378968229581 0 0)
(0.00111337841738495 0 0)
(0.0009943865658022955 0 0)
(0.0008750258791043104 0 0)
(0.0007620875796934836 0 0)
(0.0006510361106043312 0 0)
(0.0005472293605063148 0 0)
(0.0004415261666854182 0 0)
(0.0003392612214808291 0 0)
(0.0002329828696269415 0 0)
(0.0001293474875709729 0 0)
(2.34017026964223e-05 0 0)
(-7.682065354959636e-05 0 0)
(-0.0001794619216633883 0 0)
(-0.0002758449317870002 0 0)
(-0.0003525614874683803 0 0)
(-0.0003886204641169227 0 0)
(-0.0003332850916498594 0 0)
(-0.0002244605748167099 0 0)
(-9.835748953326739e-05 0 0)
(2.164994346558407e-05 0 0)
(0.0001475843104886734 0 0)
(0.0002671884069391151 0 0)
(0.0003926593543372441 0 0)
(0.0005102452963449446 0 0)
(0.0006306566933098271 0 0)
(0.0007398265475993574 0 0)
(0.0008478891256780013 0 0)
(0.0009485251479291907 0 0)
(0.001054101942233934 0 0)
(0.001155400269130569 0 0)
(0.001262321045102515 0 0)
(0.001363837765217065 0 0)
(0.001469757712140865 0 0)
(0.001570982649230028 0 0)
(0.00167719293359489 0 0)
(0.001774602177617276 0 0)
(0.00187209802872624 0 0)
(0.001959102908127809 0 0)
(0.002007812796783378 0 0)
(0.001984695166519447 0 0)
(0.001882293353103421 0 0)
(0.001762131859527058 0 0)
(0.001636546042055709 0 0)
(0.001514889130388218 0 0)
(0.001389993084567106 0 0)
(0.001269560990034801 0 0)
(0.001145750953283497 0 0)
(0.001027958554459064 0 0)
(0.000912941994110678 0 0)
(0.0008070376043300911 0 0)
(0.0007011448087255731 0 0)
(0.0005982767482336866 0 0)
(0.0004927814915311681 0 0)
(0.0003901110715344013 0 0)
(0.0002835229333806198 0 0)
(0.0001795561045588958 0 0)
(7.448190008525453e-05 0 0)
(-2.650996885580816e-05 0 0)
(-0.000130366558340345 0 0)
(-0.0002280864610772875 0 0)
(-0.0003130966171808483 0 0)
(-0.0003714894804561347 0 0)
(-0.0003494176388532729 0 0)
(-0.0002551956603834146 0 0)
(-0.0001296809334709257 0 0)
(-9.03057060022347e-06 0 0)
(0.0001177553473077246 0 0)
(0.0002382618786533232 0 0)
(0.0003644547838859844 0 0)
(0.0004827089139012338 0 0)
(0.0006042856258239929 0 0)
(0.0007143654775876036 0 0)
(0.0008233663933446594 0 0)
(0.0009244600297938247 0 0)
(0.001030746888316974 0 0)
(0.001132654874574833 0 0)
(0.00124022661727687 0 0)
(0.001342360897755001 0 0)
(0.001449585826761231 0 0)
(0.001552052424384198 0 0)
(0.001659529225267782 0 0)
(0.001758206738815259 0 0)
(0.001858400459726713 0 0)
(0.001949161969141274 0 0)
(0.002007722216220374 0 0)
(0.002001299742174223 0 0)
(0.001909308863546921 0 0)
(0.001791510097768696 0 0)
(0.001666986428437236 0 0)
(0.001546625976936043 0 0)
(0.001422794150977857 0 0)
(0.001303556123099405 0 0)
(0.001180445306747396 0 0)
(0.001063710473077051 0 0)
(0.0009482495780537522 0 0)
(0.0008421023665951358 0 0)
(0.0007356812629597462 0 0)
(0.0006332225758780323 0 0)
(0.0005274831635053732 0 0)
(0.000424859232369059 0 0)
(0.0003176983831784954 0 0)
(0.00021396331162457 0 0)
(0.0001082887945572822 0 0)
(6.851945542210365e-06 0 0)
(-9.853958630623751e-05 0 0)
(-0.0001966841802371926 0 0)
(-0.0002862411919839194 0 0)
(-0.0003548025939071275 0 0)
(-0.0003527233214412117 0 0)
(-0.0002725936401764066 0 0)
(-0.0001509421459942026 0 0)
(-3.186761470196827e-05 0 0)
(9.308703892192976e-05 0 0)
(0.000212383303275403 0 0)
(0.0003365041018616777 0 0)
(0.0004532920724019377 0 0)
(0.0005735419404450482 0 0)
(0.0006826654681337564 0 0)
(0.0007911925957123744 0 0)
(0.0008920568412175913 0 0)
(0.0009980662818178407 0 0)
(0.001099814709080318 0 0)
(0.001206843170053368 0 0)
(0.001308747550631605 0 0)
(0.001416007495599274 0 0)
(0.00151876276966851 0 0)
(0.001625820923303522 0 0)
(0.001724798521317256 0 0)
(0.001826502883310789 0 0)
(0.001920031373443635 0 0)
(0.001988948003166591 0 0)
(0.002003942566825757 0 0)
(0.001929616250507895 0 0)
(0.001816032845435327 0 0)
(0.001693014736587589 0 0)
(0.001574075523374581 0 0)
(0.001451622378738499 0 0)
(0.001333798958557155 0 0)
(0.001212266737621464 0 0)
(0.00109845897078824 0 0)
(0.0009855298803606383 0 0)
(0.0008815713451730178 0 0)
(0.0007748840054134429 0 0)
(0.0006726983398720707 0 0)
(0.0005663363697773745 0 0)
(0.0004633070547134941 0 0)
(0.0003553513822550002 0 0)
(0.0002512076206838177 0 0)
(0.0001449662481495596 0 0)
(4.421036800382489e-05 0 0)
(-5.919182210925797e-05 0 0)
(-0.0001575793298608942 0 0)
(-0.0002524735609869246 0 0)
(-0.0003327205622344175 0 0)
(-0.0003502642118848611 0 0)
(-0.000291545187669145 0 0)
(-0.0001790668535274325 0 0)
(-5.827295028256617e-05 0 0)
(7.193148180537001e-05 0 0)
(0.0001958443519823794 0 0)
(0.0003182664830332808 0 0)
(0.0004254926454293246 0 0)
(0.0005263377792375915 0 0)
(0.0006156833234077445 0 0)
(0.0007031717371847823 0 0)
(0.0008000162485814496 0 0)
(0.000928570556212097 0 0)
(0.001068723231447612 0 0)
(0.001209777995711042 0 0)
(0.001373086681095464 0 0)
(0.001518588626217664 0 0)
(0.001695982980382719 0 0)
(0.001811366560165792 0 0)
(0.001976283754442898 0 0)
(0.002119302970588095 0 0)
(0.002256762047132938 0 0)
(0.002367937799428126 0 0)
(0.002440092592414273 0 0)
(0.002440563486887349 0 0)
(0.002375509470627018 0 0)
(0.002311286596396491 0 0)
(0.002262944150366737 0 0)
(0.002225625077528908 0 0)
(0.002153500108859324 0 0)
(0.002050189605694565 0 0)
(0.001925446342300275 0 0)
(0.001774691217182665 0 0)
(0.001623078380542158 0 0)
(0.001485741824566677 0 0)
(0.001349623399513959 0 0)
(0.001195214158565066 0 0)
(0.001045021673660289 0 0)
(0.0008642828992733264 0 0)
(0.0007634780829657601 0 0)
(0.0006183262916965838 0 0)
(0.0004653801638037889 0 0)
(0.000322705034432814 0 0)
(0.0001985712425222661 0 0)
(7.962574148140034e-05 0 0)
(-3.566182705167876e-05 0 0)
(-0.0001309898676265429 0 0)
(-0.0001440699079477665 0 0)
(-0.0001318462303574022 0 0)
(-0.000106855989686412 0 0)
(-5.821707154332668e-05 0 0)
(1.985727070886402e-05 0 0)
(7.0510891817208e-05 0 0)
(0.000154732128765784 0 0)
(0.0002875951379654892 0 0)
(0.0004180925706380286 0 0)
(0.0005603991900690829 0 0)
(0.0006892278397858843 0 0)
(0.0008461021399753726 0 0)
(0.0009824513471759211 0 0)
(0.001129638801248849 0 0)
(0.001273225231394971 0 0)
(0.001418487155194371 0 0)
(0.001568533756782778 0 0)
(0.001708068227746417 0 0)
(0.001827445426635988 0 0)
(0.001968588345165469 0 0)
(0.002105040221245274 0 0)
(0.002229205475391379 0 0)
(0.002316131821961156 0 0)
(0.002364936227267775 0 0)
(0.00231800952502965 0 0)
(0.002242172568349849 0 0)
(0.002170721557328927 0 0)
(0.002109166477792525 0 0)
(0.002036635040841499 0 0)
(0.001943892662757084 0 0)
(0.001822908757157933 0 0)
(0.001686942841559302 0 0)
(0.001534621877069042 0 0)
(0.001386347551179394 0 0)
(0.001245347339804616 0 0)
(0.001106660146478604 0 0)
(0.0009536750845405512 0 0)
(0.0007970379029101519 0 0)
(0.000653526167385789 0 0)
(0.0005134610594595586 0 0)
(0.0003632710019771546 0 0)
(0.0001913068819634381 0 0)
(5.848524049178895e-05 0 0)
(-7.707743551465125e-05 0 0)
(-0.000200721827631367 0 0)
(-0.0003163743104877989 0 0)
(-0.0003605519058365008 0 0)
(-0.0003292283642534157 0 0)
(-0.000286347874026058 0 0)
(-0.0002240047949467435 0 0)
(-0.0001519592122501624 0 0)
(-7.942523906139307e-05 0 0)
(1.220363279283058e-07 0 0)
(9.84945076168257e-05 0 0)
(0.0002308484382971183 0 0)
(0.0003544298906693893 0 0)
(0.0004792883088640558 0 0)
(0.0006196152667311693 0 0)
(0.0007620245091905426 0 0)
(0.0009063516341840155 0 0)
(0.00105302983753834 0 0)
(0.001186087985831338 0 0)
(0.001337087379566986 0 0)
(0.001492997514404428 0 0)
(0.001606660116575225 0 0)
(0.001753850334999349 0 0)
(0.00188517951434975 0 0)
(0.002021624139972395 0 0)
(0.002129778299432965 0 0)
(0.002202412341319739 0 0)
(0.002175196253533544 0 0)
(0.00213502399034495 0 0)
(0.001979041647495449 0 0)
)
;

boundaryField
{
    inlet
    {
        type            calculated;
        value           uniform (-1.907307034772731e-05 0 0);
    }
    outlet
    {
        type            calculated;
        value           uniform (0.001979041647495449 0 0);
    }
    frontAndBack
    {
        type            empty;
    }
}


// ************************************************************************* //
