/*--------------------------------*- C++ -*----------------------------------*\
| =========                 |                                                 |
| \\      /  F ield         | OpenFOAM: The Open Source CFD Toolbox           |
|  \\    /   O peration     | Version:  v2012                                 |
|   \\  /    A nd           | Website:  www.openfoam.com                      |
|    \\/     M anipulation  |                                                 |
\*---------------------------------------------------------------------------*/
FoamFile
{
    version     2.0;
    format      ascii;
    class       volScalarField;
    location    "0.004";
    object      pMean;
}
// * * * * * * * * * * * * * * * * * * * * * * * * * * * * * * * * * * * * * //

dimensions      [1 -1 -2 0 0 0 0];


internalField   nonuniform List<scalar> 
1000
(
101325.0556736941
101325.0310961738
101325.030909849
101325.0946444087
101325.1263823045
101325.1794653625
101325.2579259266
101325.3305756934
101325.3884370503
101325.4971703582
101325.5771949523
101325.653813443
101325.749647159
101325.8467382804
101325.9113661766
101325.9931591628
101326.0837656434
101326.135134094
101326.1950464264
101326.2480997596
101326.2834162199
101326.30968177
101326.3143590848
101326.3334918924
101326.3214269617
101326.2909422239
101326.2495165511
101326.2331099951
101326.1714076785
101326.0765248173
101326.0373636488
101325.9677549528
101325.8480631281
101325.7563652339
101325.7182848094
101325.6024075209
101325.5037636691
101325.4418511706
101325.3702356336
101325.279868956
101325.2024150159
101325.1648794086
101325.1019293804
101325.0621805765
101325.0253809898
101325.0189800703
101325.0138623074
101325.0101249927
101325.0354135673
101325.0657145664
101325.1092654257
101325.1573958738
101325.2238911231
101325.285181623
101325.3789777753
101325.4634890293
101325.5424674885
101325.630076299
101325.7172839438
101325.7977215245
101325.8802608062
101325.9619346947
101326.0260285214
101326.102135991
101326.1725196637
101326.2115461568
101326.2619882501
101326.2957474122
101326.3195816854
101326.3236044364
101326.3203757723
101326.3028973368
101326.2808510631
101326.2351435181
101326.1825277451
101326.1316366604
101326.0568844412
101325.9702444306
101325.8918979125
101325.8099148348
101325.7121922433
101325.6411206327
101325.5621840921
101325.4683673769
101325.3934565332
101325.3271603111
101325.2537442761
101325.1807488364
101325.1338974628
101325.0891102208
101325.0475738159
101325.0201456066
101325.0145495362
101325.0134867728
101325.0244867326
101325.0480357056
101325.0924189693
101325.1384361683
101325.1983627758
101325.2683393994
101325.3496781345
101325.4372683407
101325.5215852528
101325.5969222383
101325.6839307979
101325.773732634
101325.8415025082
101325.9208882486
101326.0044640298
101326.067037501
101326.1268496834
101326.1937558659
101326.2392581559
101326.265707194
101326.3080288675
101326.3260512146
101326.3117524951
101326.315945894
101326.2995086584
101326.2442699521
101326.2048158157
101326.1643899741
101326.0719933643
101325.9909567764
101325.9282504927
101325.8321369537
101325.740635308
101325.6740644661
101325.5935673826
101325.4962658162
101325.4357680113
101325.3609356159
101325.2763853628
101325.2203564514
101325.172270219
101325.1035979421
101325.0648017605
101325.0549097675
101325.0125400147
101325.0117040931
101325.0262065926
101325.0426766131
101325.0614213109
101325.1264746194
101325.1767494348
101325.2377839348
101325.3336180197
101325.406199248
101325.4959297788
101325.5747502208
101325.6521471302
101325.7363125614
101325.8229572414
101325.8854506365
101325.9627290202
101326.0533270032
101326.0901198283
101326.1570738893
101326.2244212531
101326.2536618511
101326.2743095172
101326.3204830581
101326.324489831
101326.2977799174
101326.3108821046
101326.2762404583
101326.217802157
101326.1724034579
101326.124298465
101326.0133082104
101325.9419655723
101325.8708051099
101325.7771658476
101325.6956321972
101325.6261298063
101325.5386192629
101325.4552910537
101325.4016928154
101325.3119174549
101325.2472982637
101325.2019208212
101325.1357070054
101325.0864250021
101325.065305106
101325.037645936
101325.0099810612
101325.0287844563
101325.0354562177
101325.0546803978
101325.1039637833
101325.159241973
101325.2130651711
101325.3080342067
101325.38822207
101325.4603411466
101325.5485707517
101325.6303891466
101325.7038000849
101325.7813677671
101325.8724262118
101325.9268513791
101326.006005641
101326.0766854847
101326.1300925791
101326.1849822044
101326.2323737023
101326.2691510829
101326.2926960918
101326.3144083352
101326.307089026
101326.3095005901
101326.2769601061
101326.2436692606
101326.1954931585
101326.1319948123
101326.0476874744
101325.9719611399
101325.8919511326
101325.8045139403
101325.7334211961
101325.6514234844
101325.5671866023
101325.4975811475
101325.4258765783
101325.3441855372
101325.2847112314
101325.2266695374
101325.1616787749
101325.1209950698
101325.081565452
101325.0504676687
101325.0291411351
101325.033106519
101325.033199453
101325.0504695344
101325.0908755287
101325.1391697166
101325.1967717105
101325.2808775548
101325.3620001773
101325.4385750249
101325.520196766
101325.6021364216
101325.6774117013
101325.7544107142
101325.8353571165
101325.9061484849
101325.9750806738
101326.0432230385
101326.1067204581
101326.1595846015
101326.2056496441
101326.2528167298
101326.2766990686
101326.2975878472
101326.3071533225
101326.3044018079
101326.2834888022
101326.2546970623
101326.2112459557
101326.1516242509
101326.0747099532
101325.996420639
101325.9154887725
101325.835278063
101325.7551029851
101325.6839047778
101325.5983728452
101325.5241064228
101325.4521475797
101325.3835432046
101325.307597745
101325.2519386654
101325.1959643073
101325.1400774069
101325.102884193
101325.0700780033
101325.0470503786
101325.0320322833
101325.0412829784
101325.051434987
101325.0778464745
101325.1270407694
101325.1759855552
101325.2595932493
101325.3333988753
101325.4186590476
101325.4871607243
101325.5813573485
101325.645639553
101325.7287794312
101325.8053247002
101325.8773385879
101325.9454506294
101326.0134567523
101326.0849849577
101326.1251001206
101326.1893413599
101326.2270853845
101326.2606976887
101326.2813378666
101326.3022149254
101326.2975872372
101326.2807882895
101326.2699686626
101326.220131331
101326.1708792975
101326.0984198128
101326.0277368525
101325.9376134944
101325.8635236853
101325.7890257237
101325.7084744958
101325.6293753662
101325.5564753161
101325.4865096661
101325.4050430467
101325.3458410115
101325.2812276095
101325.22100983
101325.1662343135
101325.1289198867
101325.0875795718
101325.0602307882
101325.0496066547
101325.0426463662
101325.0515259423
101325.0744790214
101325.1163221599
101325.1583678119
101325.2316750633
101325.3131713845
101325.3881677514
101325.4669284298
101325.5461317423
101325.6225655764
101325.6992685107
101325.7757602981
101325.8467456318
101325.9191690027
101325.9876816613
101326.0488342112
101326.1085765076
101326.1608649024
101326.2028556067
101326.2425251322
101326.272521884
101326.2821847449
101326.2902171859
101326.2910384913
101326.2648944018
101326.2282689624
101326.1900503388
101326.1289491549
101326.0403141254
101325.9725485775
101325.8925269426
101325.8143888202
101325.7354658747
101325.6629155905
101325.586111937
101325.5097825845
101325.4437819614
101325.3709562138
101325.3100245297
101325.2466018018
101325.1980345957
101325.1458211866
101325.1109285949
101325.0794020792
101325.0605631273
101325.0551184298
101325.0518682568
101325.0761677776
101325.1050607968
101325.1504324254
101325.2058885413
101325.2943777886
101325.361327298
101325.4450858671
101325.52056481
101325.5935829943
101325.6739246707
101325.7471397528
101325.8229191786
101325.8844484664
101325.9679546556
101326.0181630064
101326.0823991579
101326.1357389042
101326.1854293849
101326.2205808763
101326.2514845242
101326.2772008309
101326.2777679369
101326.285896994
101326.2638122818
101326.241361543
101326.1970768756
101326.1477412356
101326.0682132885
101325.9934482006
101325.9212392678
101325.8372812986
101325.7654465415
101325.6895213745
101325.6154070006
101325.5362790034
101325.4750340655
101325.4008109319
101325.3319650527
101325.2801259662
101325.2209691159
101325.1692952045
101325.1315906016
101325.1027656433
101325.0699352418
101325.0647468793
101325.0653413791
101325.0718541812
101325.0998930301
101325.1430354737
101325.1908495007
101325.2624645809
101325.3480443699
101325.4179653293
101325.4902749687
101325.5740952573
101325.6462133669
101325.7184124015
101325.7913532719
101325.8681152915
101325.926661388
101325.9980669817
101326.0580885821
101326.1083023249
101326.1600547814
101326.2036161162
101326.2350301352
101326.2554905367
101326.2777447531
101326.2742500716
101326.2652624145
101326.2464653985
101326.2088353336
101326.1576620266
101326.0991619717
101326.0169045842
101325.9395515342
101325.8713187912
101325.7901703597
101325.7148071919
101325.6418792824
101325.573878511
101325.4927229621
101325.4335183597
101325.3643153868
101325.3009174191
101325.2490250666
101325.1947726025
101325.1534947073
101325.1143369565
101325.0945011512
101325.0706649003
101325.0717201583
101325.0753199753
101325.0976117442
101325.1305561844
101325.1787081564
101325.2416088848
101325.3184695463
101325.3975083091
101325.4671499201
101325.5471307323
101325.6169279976
101325.6963584874
101325.7624082922
101325.8385241724
101325.9029997692
101325.9691931443
101326.031482517
101326.0843900169
101326.1390780125
101326.1779791221
101326.220383886
101326.2400691288
101326.2633327542
101326.2672940108
101326.2654799888
101326.245491243
101326.2153847362
101326.1775373535
101326.1139679336
101326.0427425932
101325.9670094212
101325.8937136637
101325.8167173331
101325.7447278472
101325.6713284266
101325.5956138927
101325.5292269394
101325.4575789007
101325.3930515091
101325.3292500716
101325.2744765635
101325.2196858533
101325.1749681384
101325.1378670745
101325.1065544176
101325.0886819817
101325.0780500984
101325.0824693517
101325.0944208081
101325.1270077376
101325.1661177771
101325.2208748031
101325.3010082331
101325.3692599488
101325.4485509349
101325.5162688344
101325.5983322394
101325.6635821331
101325.7399914889
101325.8100331157
101325.876442168
101325.9445627561
101326.0026545187
101326.0655694824
101326.1095800592
101326.1638296402
101326.1957351549
101326.2295466165
101326.2485720633
101326.2599691234
101326.2610679749
101326.244851394
101326.2259571876
101326.1821278816
101326.1387585577
101326.0643162146
101325.993957507
101325.9157526724
101325.8435741397
101325.7674146433
101325.6948788846
101325.6212831982
101325.5491762476
101325.479977797
101325.4098764387
101325.3478720023
101325.2822299496
101325.228765735
101325.1725379322
101325.128310618
101325.0865729928
101325.0527314965
101325.028109629
101325.0080883249
101325.0000892392
101325.0000000011
101325
101325.0000000001
101325.0000000001
101325.0000000001
101325.0000000001
101325.0000000001
101325.0000000001
101325.0000000001
101325.0000000001
101325.0000000001
101325.0000000001
101325.0000000001
101325.0000000001
101325.0000000001
101325.0000000001
101325.0000000001
101325.0000000001
101325.0000000001
101325.0000000001
101325.0000000002
101325.0000000001
101325.0000000001
101325.0000000001
101325.0000000001
101325.0000000001
101325.0000000001
101325.0000000001
101325.0000000001
101325.0000000001
101325.0000000001
101325.0000000001
101325.0000000001
101325.0000000001
101325.0000000001
101325.0000000001
101325.0000000001
101325.0000000001
101325.0000000002
101325.0000000001
101325.0000000001
101325.0000000001
101325.0000000001
101325.0000000001
101325.0000000001
101325.0000000001
101325.0000000001
101325.0000000001
101325.0000000001
101325.0000000001
101325.0000000001
101325.0000000001
101325.0000000001
101325.0000000001
101325.0000000001
101325.0000000001
101325.0000000001
101325.0000000001
101325.0000000001
101325.0000000001
101325.0000000001
101325.0000000001
101325.0000000001
101325.0000000001
101325.0000000001
101325.0000000001
101325.0000000001
101325.0000000001
101325.0000000001
101325.0000000001
101325.0000000001
101325.0000000001
101325.0000000001
101325.0000000001
101325.0000000001
101325.0000000001
101325.0000000002
101325.0000000001
101325.0000000002
101325.0000000001
101325.0000000001
101325.0000000001
101325.0000000001
101325.0000000001
101325.0000000001
101325.0000000001
101325.0000000001
101325.0000000002
101325.0000000001
101325.0000000001
101325.0000000001
101325.0000000001
101325.0000000001
101325.0000000001
101325.0000000002
101325.0000000001
101325.0000000001
101325.0000000001
101325.0000000002
101325.0000000002
101325.0000000001
101325.0000000001
101325.0000000001
101325.0000000002
101325.0000000001
101325.0000000001
101325.0000000002
101325.0000000001
101325.0000000001
101325.0000000001
101325.0000000001
101325.0000000001
101325.0000000002
101325.0000000001
101325.0000000001
101325.0000000001
101325.0000000001
101325.0000000001
101325.0000000001
101325.0000000001
101325.0000000001
101325.0000000001
101325.0000000001
101325.0000000002
101325.0000000001
101325.0000000001
101325.0000000001
101325.0000000001
101325.0000000001
101325.0000000001
101325.0000000001
101325.0000000001
101325.0000000001
101325.0000000001
101325.0000000001
101325.0000000001
101325.0000000001
101325.0000000001
101325.0000000001
101325.0000000001
101325.0000000001
101325.0000000001
101325.0000000001
101325.0000000001
101325.0000000001
101325.0000000001
101325.0000000001
101325.0000000001
101325.0000000001
101325.0000000001
101325.0000000001
101325.0000000001
101325.0000000001
101325.0000000001
101325.0000000001
101325.0000000001
101325.0000000001
101325.0000000001
101325.0000000001
101325.0000000001
101325.0000000001
101325.0000000001
101325.0000000001
101325.0000000001
101325.0000000001
101325.0000000001
101325.0000000001
101325.0000000001
101325.0000000001
101325.0000000001
101325.0000000001
101325.0000000001
101325.0000000001
101325.0000000001
101325.0000000001
101325.0000000001
101325.0000000001
101325.0000000001
101325.0000000001
101325.0000000001
101325.0000000001
101325.0000000001
101325.0000000001
101325.0000000001
101325.0000000001
101325.0000000001
101325.0000000001
101325
101325.0000000001
101325
101325
101325
101325.0000000001
101325
101325.0000000001
101325
101325
101325
101325.0000000001
101325.0000000001
101325.0000000001
101325
101325.0000000001
101325.0000000001
101325.0000000001
101325
101325.0000000001
101325
101325.0000000001
101325
101325.0000000001
101325
101325.0000000001
101325
101325.0000000001
101325.0000000001
101325
101325.0000000001
101325.0000000001
101325.0000000001
101325.0000000001
101325
101325.0000000001
101325.0000000001
101325.0000000001
101325
101325.0000000001
101325
101325.0000000001
101325.0000000001
101325.0000000001
101325
101325.0000000001
101325.0000000001
101325.0000000001
101325.0000000001
101325.0000000001
101325.0000000001
101325
101325
101325.0000000001
101325.0000000001
101325.0000000001
101325.0000000001
101325.0000000001
101325.0000000001
101325.0000000001
101325.0000000001
101325.0000000001
101325.0000000001
101325.0000000001
101325.0000000001
101325.0000000001
101325.0000000001
101325.0000000001
101325
101325.0000000001
101325.0000000001
101325.0000000001
101325.0000000001
101325.0000000001
101325.0000000001
101325.0000000001
101325.0000000001
101325.0000000001
101325.0000000001
101325.0000000001
101325.0000000001
101325.0000000001
101325.0000000001
101325.0000000001
101325.0000000001
101325.0000000001
101325.0000000001
101325.0000000001
101325.0000000001
101325.0000000001
101325.0000000001
101325.0000000001
101325
101325.0000000001
101325.0000000001
101325.0000000001
101325.0000000001
101325.0000000001
101325.0000000001
101325.0000000001
101325.0000000001
101325.0000000001
101325.0000000001
101325.0000000001
101325.0000000001
101325.0000000001
101325.0000000001
101325.0000000001
101325.0000000001
101325.0000000001
101325.0000000001
101325.0000000001
101325.0000000001
101325.0000000001
101325.0000000001
101325.0000000001
101325.0000000001
101325.0000000001
101325.0000000001
101325.0000000001
101325.0000000001
101325.0000000001
101325.0000000001
101325.0000000001
101325.0000000001
101325.0000000001
101325.0000000001
101325.0000000001
101325.0000000001
101325.0000000001
101325.0000000001
101325.0000000002
101325.0000000001
101325.0000000001
101325.0000000001
101325.0000000001
101325.0000000001
101325.0000000001
101325.0000000001
101325.0000000001
101325.0000000001
101325.0000000001
101325.0000000001
101325.0000000001
101325.0000000001
101325.0000000001
101325.0000000001
101325.0000000001
101325.0000000001
101325.0000000001
101325.0000000001
101325.0000000001
101325.0000000001
101325.0000000001
101325.0000000001
101325.0000000001
101325.0000000001
101325.0000000002
101325.0000000001
101325.0000000002
101325.0000000001
101325.0000000001
101325.0000000001
101325.0000000001
101325.0000000002
101325.0000000002
101325.0000000002
101325.0000000001
101325.0000000001
101325.0000000001
101325.0000000001
101325.0000000001
101325.0000000001
101325.0000000001
101325.0000000001
101325.0000000001
101325.0000000001
101325.0000000001
101325.0000000001
101325.0000000001
101325.0000000001
101325.0000000002
101325.0000000001
101325.0000000001
101325.0000000001
101325.0000000001
101325.0000000001
101325.0000000001
101325.0000000001
101325.0000000002
101325.0000000001
101325.0000000001
101325.0000000002
101325.0000000001
101325.0000000001
101325.0000000001
101325.0000000001
101325.0000000001
101325.0000000001
101325.0000000001
101325.0000000002
101325.0000000001
101325.0000000001
101325.0000000001
101325.0000000001
101325.0000000001
101325.0000000001
101325.0000000001
101325.0000000001
101325.0000000002
101325.0000000001
101325.0000000002
101325.0000000001
101325.0000000001
101325.0000000002
101325.0000000001
101325.0000000002
101325.0000000002
101325.0000000002
101325.0000000002
101325.0000000001
101325.0000000002
101325.0000000002
101325.0000000002
101325.0000000002
101325.0000000003
101325.0000000002
101325.0000000002
101325.0000000002
101325.0000000002
101325.0000000001
101325.0000000002
101325.0000000001
101325.0000000001
101325.0000000002
101325.0000000002
101325.0000000002
101325.0000000002
101325.0000000002
101325.0000000001
101325.0000000002
101325.0000000002
101325.0000000002
101325.0000000002
101325.0000000001
101325.0000000002
101325.0000000002
101325.0000000001
101325.0000000002
101325.0000000002
101325.0000000002
101325.0000000002
101325.0000000002
101325.0000000002
)
;

boundaryField
{
    inlet
    {
        type            calculated;
        value           uniform 101325.0088319039;
    }
    outlet
    {
        type            calculated;
        value           uniform 101325.0000000002;
    }
    frontAndBack
    {
        type            empty;
    }
}


// ************************************************************************* //
