/*--------------------------------*- C++ -*----------------------------------*\
| =========                 |                                                 |
| \\      /  F ield         | OpenFOAM: The Open Source CFD Toolbox           |
|  \\    /   O peration     | Version:  v2012                                 |
|   \\  /    A nd           | Website:  www.openfoam.com                      |
|    \\/     M anipulation  |                                                 |
\*---------------------------------------------------------------------------*/
FoamFile
{
    version     2.0;
    format      ascii;
    class       volVectorField;
    location    "0.004";
    object      U;
}
// * * * * * * * * * * * * * * * * * * * * * * * * * * * * * * * * * * * * * //

dimensions      [0 1 -1 0 0 0 0];


internalField   nonuniform List<vector> 
1000
(
(-0.02043669907121812 0 0)
(-0.04877640701913756 0 0)
(-0.04837324734258944 0 0)
(-0.07457179945662457 0 0)
(-0.08171718220121944 0 0)
(-0.09406579150240084 0 0)
(-0.1053378033444981 0 0)
(-0.1062410829510756 0 0)
(-0.1186126649055264 0 0)
(-0.1194276232199554 0 0)
(-0.1188074195812731 0 0)
(-0.1188648235477399 0 0)
(-0.1157181622826536 0 0)
(-0.1113581225860134 0 0)
(-0.1079709566051588 0 0)
(-0.09510709578267443 0 0)
(-0.08688885968273059 0 0)
(-0.07400873060988267 0 0)
(-0.05788997776712565 0 0)
(-0.0457505246608334 0 0)
(-0.02915665751811871 0 0)
(-0.0132536122155113 0 0)
(0.002931265887535792 0 0)
(0.01961075343987766 0 0)
(0.0351186093047364 0 0)
(0.05117523876996417 0 0)
(0.06534784995585448 0 0)
(0.07862427912032284 0 0)
(0.0911395963884734 0 0)
(0.1012576841106163 0 0)
(0.1144213165644599 0 0)
(0.1172571109518471 0 0)
(0.1171359641056013 0 0)
(0.1168187768798391 0 0)
(0.1166053213198769 0 0)
(0.1129101089949481 0 0)
(0.1119015674556839 0 0)
(0.1060000764269075 0 0)
(0.09781419145523648 0 0)
(0.09108351297233905 0 0)
(0.07680721272232151 0 0)
(0.06489854686778876 0 0)
(0.04950020884417393 0 0)
(0.03273903342700472 0 0)
(0.01727326488684148 0 0)
(-2.501561099652292e-06 0 0)
(-0.01612169087469213 0 0)
(-0.03197130902588086 0 0)
(-0.04774436334748166 0 0)
(-0.06257184558938653 0 0)
(-0.0765571977124504 0 0)
(-0.08931952881279875 0 0)
(-0.1026197155092409 0 0)
(-0.1148657480581386 0 0)
(-0.1160416745924949 0 0)
(-0.1160121380154271 0 0)
(-0.1150714752287408 0 0)
(-0.11492392796333 0 0)
(-0.1126041751859365 0 0)
(-0.1087405049096202 0 0)
(-0.106501344924551 0 0)
(-0.09799385571670963 0 0)
(-0.09075428872448811 0 0)
(-0.08167312631616901 0 0)
(-0.06677819498945216 0 0)
(-0.05494734471803885 0 0)
(-0.03814067908898128 0 0)
(-0.02143640232558519 0 0)
(-0.005173075478602352 0 0)
(0.01278501812253157 0 0)
(0.02867550581574652 0 0)
(0.04472431127487644 0 0)
(0.05991817483010204 0 0)
(0.07396487430734051 0 0)
(0.0870930432617462 0 0)
(0.1019188841171414 0 0)
(0.1141734030373297 0 0)
(0.1145243161592041 0 0)
(0.1146827257044872 0 0)
(0.1144629806469195 0 0)
(0.1127890282439929 0 0)
(0.112470681009468 0 0)
(0.1083137798893991 0 0)
(0.104237870738128 0 0)
(0.1011579923037057 0 0)
(0.09002226623594109 0 0)
(0.08336874137313705 0 0)
(0.07245830334496453 0 0)
(0.05657200586028303 0 0)
(0.04469559885091816 0 0)
(0.0266469810242313 0 0)
(0.009567892648197015 0 0)
(-0.007039052455041396 0 0)
(-0.02560469959987784 0 0)
(-0.04179082578964569 0 0)
(-0.05805519185555883 0 0)
(-0.07334836795038967 0 0)
(-0.08639277943752248 0 0)
(-0.1036762926913879 0 0)
(-0.1131231023929617 0 0)
(-0.1133904332341841 0 0)
(-0.1137994065644076 0 0)
(-0.1127811073263552 0 0)
(-0.1120951605991372 0 0)
(-0.1109626089024165 0 0)
(-0.1071637605214513 0 0)
(-0.1047977670836795 0 0)
(-0.09889189983634879 0 0)
(-0.09153567977145215 0 0)
(-0.08452483534486713 0 0)
(-0.07241901802545064 0 0)
(-0.0610972472158872 0 0)
(-0.04707843855463788 0 0)
(-0.03088815666829847 0 0)
(-0.01506976409296985 0 0)
(0.002986072036166364 0 0)
(0.02030935465741062 0 0)
(0.03770649394115843 0 0)
(0.05460422229016763 0 0)
(0.07031638982309228 0 0)
(0.08447057208353702 0 0)
(0.1023906860216168 0 0)
(0.1120280540504286 0 0)
(0.1126311367527681 0 0)
(0.1125782048816917 0 0)
(0.1117581885143166 0 0)
(0.1118029518030417 0 0)
(0.1097296373366681 0 0)
(0.1068582421790436 0 0)
(0.1055112064418001 0 0)
(0.09855952053275667 0 0)
(0.09309647960469918 0 0)
(0.08633994263723954 0 0)
(0.0741118753018243 0 0)
(0.06443336169130856 0 0)
(0.0505316449341803 0 0)
(0.03496838236574409 0 0)
(0.01979410522571285 0 0)
(0.001767097438010393 0 0)
(-0.01570567264997669 0 0)
(-0.0336390515692141 0 0)
(-0.05130413364763004 0 0)
(-0.06842318728736478 0 0)
(-0.08379701748736786 0 0)
(-0.1041583385156644 0 0)
(-0.111797218778797 0 0)
(-0.1116870299526531 0 0)
(-0.1119393285247026 0 0)
(-0.1114674287548555 0 0)
(-0.1098326229474377 0 0)
(-0.1098684930536604 0 0)
(-0.1067457093199742 0 0)
(-0.1027673970125378 0 0)
(-0.1002645413159854 0 0)
(-0.09193893359648043 0 0)
(-0.08581536416107921 0 0)
(-0.07730254033718068 0 0)
(-0.06399505478835944 0 0)
(-0.05386384896510225 0 0)
(-0.03832117239381344 0 0)
(-0.02244920201085838 0 0)
(-0.006881250954447769 0 0)
(0.01169514032935077 0 0)
(0.0287906453162845 0 0)
(0.04652602127038131 0 0)
(0.06424406551700323 0 0)
(0.07950622094053744 0 0)
(0.1007593386908419 0 0)
(0.1107023041029642 0 0)
(0.1112990162548549 0 0)
(0.11110737055233 0 0)
(0.1105730537373424 0 0)
(0.1106593207243924 0 0)
(0.1082517456673636 0 0)
(0.1065865920664491 0 0)
(0.1045922084837418 0 0)
(0.09815486126263229 0 0)
(0.09509064046775619 0 0)
(0.08720400364586012 0 0)
(0.07737101669684091 0 0)
(0.06946826566118129 0 0)
(0.05523869969229904 0 0)
(0.04228658230106808 0 0)
(0.02770287584642413 0 0)
(0.009817248942335828 0 0)
(-0.006488332295583154 0 0)
(-0.02526921322458468 0 0)
(-0.04359119615334951 0 0)
(-0.06177795657942467 0 0)
(-0.07928818627698191 0 0)
(-0.1018024461631065 0 0)
(-0.1102953423819553 0 0)
(-0.1104621173912567 0 0)
(-0.1101248448831575 0 0)
(-0.1099730796593874 0 0)
(-0.1092053423696425 0 0)
(-0.1074536342366785 0 0)
(-0.1058031462511946 0 0)
(-0.1031301096022806 0 0)
(-0.09855017916890853 0 0)
(-0.09309465638487067 0 0)
(-0.08822117265915162 0 0)
(-0.07788022779657805 0 0)
(-0.06908504648060555 0 0)
(-0.05898435902980146 0 0)
(-0.04289904646160621 0 0)
(-0.03083740298463513 0 0)
(-0.0146273298990379 0 0)
(0.003727468219851655 0 0)
(0.01975176221361221 0 0)
(0.03877190445348051 0 0)
(0.05727219948761221 0 0)
(0.07384634944867265 0 0)
(0.09637682602419273 0 0)
(0.1092776315652964 0 0)
(0.1096159133357173 0 0)
(0.1093625897804712 0 0)
(0.1093584696000074 0 0)
(0.108509927335186 0 0)
(0.1069668564457453 0 0)
(0.1064886778632366 0 0)
(0.1024116393826007 0 0)
(0.09903906228509983 0 0)
(0.09572266338992767 0 0)
(0.08696207254859022 0 0)
(0.08140637333245775 0 0)
(0.07197886127552527 0 0)
(0.0592960481932201 0 0)
(0.04900181159153905 0 0)
(0.03334639040477285 0 0)
(0.01800408314013847 0 0)
(0.001717260378511876 0 0)
(-0.01720399967778058 0 0)
(-0.03480259890454062 0 0)
(-0.05461081472272072 0 0)
(-0.07244105778799531 0 0)
(-0.09674533647711245 0 0)
(-0.1088471917585054 0 0)
(-0.1090474668036994 0 0)
(-0.1087854352646253 0 0)
(-0.1087420332825902 0 0)
(-0.1080378999106677 0 0)
(-0.106430425247406 0 0)
(-0.105801567793724 0 0)
(-0.1018944770619525 0 0)
(-0.09848277946359603 0 0)
(-0.09513903939233269 0 0)
(-0.08680728295227323 0 0)
(-0.0813456813898107 0 0)
(-0.07214543288080096 0 0)
(-0.0603297061955448 0 0)
(-0.05042673803721733 0 0)
(-0.03522911944803324 0 0)
(-0.02078756656401447 0 0)
(-0.00514086400623281 0 0)
(0.01331370096341391 0 0)
(0.03041171610631331 0 0)
(0.04948506544522112 0 0)
(0.06771707415867524 0 0)
(0.08888012373591134 0 0)
(0.1073430618994465 0 0)
(0.1082688405357713 0 0)
(0.1082959067817773 0 0)
(0.1077977797526567 0 0)
(0.1076916317719942 0 0)
(0.1063145056793793 0 0)
(0.1044760423249938 0 0)
(0.103002650743451 0 0)
(0.09855460662516997 0 0)
(0.09497044313407253 0 0)
(0.08969323000311386 0 0)
(0.08153238477922407 0 0)
(0.07452482947983573 0 0)
(0.06359826565612646 0 0)
(0.05220146687937709 0 0)
(0.03951681548042614 0 0)
(0.02396390400968442 0 0)
(0.00864633521868617 0 0)
(-0.009099125163320012 0 0)
(-0.02751574463615106 0 0)
(-0.04640564909912195 0 0)
(-0.06545914262636168 0 0)
(-0.08774355080190847 0 0)
(-0.1068822970061909 0 0)
(-0.1077233413100121 0 0)
(-0.1075729407447205 0 0)
(-0.1076583400394627 0 0)
(-0.1065609075271419 0 0)
(-0.1057605435183083 0 0)
(-0.1046665430528745 0 0)
(-0.101161482556885 0 0)
(-0.09911643385390963 0 0)
(-0.0944725315994842 0 0)
(-0.08846431711996697 0 0)
(-0.08302087455500187 0 0)
(-0.07360353942980369 0 0)
(-0.06464209229691965 0 0)
(-0.0536899277186727 0 0)
(-0.04032161764359234 0 0)
(-0.02710967158559182 0 0)
(-0.01101113098233445 0 0)
(0.00532175070079827 0 0)
(0.02291940156138949 0 0)
(0.04151644256234469 0 0)
(0.05998044218747332 0 0)
(0.07898561684999615 0 0)
(0.1031721525651029 0 0)
(0.1068818219291968 0 0)
(0.1067853888737022 0 0)
(0.1066228090564501 0 0)
(0.1066299088610428 0 0)
(0.1049694496290406 0 0)
(0.1042307007829376 0 0)
(0.1025635680202551 0 0)
(0.09805661698099151 0 0)
(0.09608539914871023 0 0)
(0.09013288168592484 0 0)
(0.08309044024007166 0 0)
(0.07742963536018983 0 0)
(0.06620374755696844 0 0)
(0.05640546379443005 0 0)
(0.04476514932375718 0 0)
(0.02939897076600228 0 0)
(0.01548708906579699 0 0)
(-0.001781805542869832 0 0)
(-0.01999128935440496 0 0)
(-0.0380085012750165 0 0)
(-0.05803853735268335 0 0)
(-0.07729643820869241 0 0)
(-0.1023180748177253 0 0)
(-0.1064981575084141 0 0)
(-0.1064553889129479 0 0)
(-0.1061239903940076 0 0)
(-0.1061194945925127 0 0)
(-0.1048342668293575 0 0)
(-0.1033553453324729 0 0)
(-0.1022368898297006 0 0)
(-0.09815556547714965 0 0)
(-0.09494644542050534 0 0)
(-0.09015746921437448 0 0)
(-0.08342744878488606 0 0)
(-0.07624914908414235 0 0)
(-0.06737063186080727 0 0)
(-0.05711025181155704 0 0)
(-0.04464558157590796 0 0)
(-0.03218689612039015 0 0)
(-0.01716612064578701 0 0)
(-0.0008337507510069107 0 0)
(0.01516870455759348 0 0)
(0.03380774098132672 0 0)
(0.05255550595026974 0 0)
(0.06966381175214281 0 0)
(0.09502516168728677 0 0)
(0.105542927329425 0 0)
(0.1055888974130077 0 0)
(0.105492650244703 0 0)
(0.105505099350898 0 0)
(0.1042124940638163 0 0)
(0.1036061591231131 0 0)
(0.1018246296298144 0 0)
(0.09858263142628211 0 0)
(0.09604850534908443 0 0)
(0.09035216093346471 0 0)
(0.08554315280451623 0 0)
(0.0781967609641631 0 0)
(0.06891430846881907 0 0)
(0.06067241087591643 0 0)
(0.04735049722316557 0 0)
(0.03504861223203832 0 0)
(0.02128186782159498 0 0)
(0.003835890265313996 0 0)
(-0.01220310084350545 0 0)
(-0.0307190596429603 0 0)
(-0.05055610718078092 0 0)
(-0.06808823024314717 0 0)
(-0.09448368704797074 0 0)
(-0.1049803198944763 0 0)
(-0.1051211171544842 0 0)
(-0.1049233234502205 0 0)
(-0.1047008866106279 0 0)
(-0.1041340797894099 0 0)
(-0.102716067179481 0 0)
(-0.1013337174650479 0 0)
(-0.09827601137706349 0 0)
(-0.09500532328555271 0 0)
(-0.09054042615671894 0 0)
(-0.08441986065062093 0 0)
(-0.07798746907371892 0 0)
(-0.06935795632239879 0 0)
(-0.05984038302175378 0 0)
(-0.0489885623726992 0 0)
(-0.03618172917621278 0 0)
(-0.02262725021264912 0 0)
(-0.007377654941117104 0 0)
(0.009125723421297471 0 0)
(0.02633075086060654 0 0)
(0.044716509351661 0 0)
(0.06268054997257758 0 0)
(0.08434635585311702 0 0)
(0.1030207810138673 0 0)
(0.1043731400836901 0 0)
(0.1042675596110787 0 0)
(0.1039061947359539 0 0)
(0.1039302557403455 0 0)
(0.1021881325358228 0 0)
(0.1007847518167761 0 0)
(0.0995515697651787 0 0)
(0.09464551437395669 0 0)
(0.09182927605833052 0 0)
(0.08634606078286658 0 0)
(0.07887547686551995 0 0)
(0.07246275934016766 0 0)
(0.06214363316389748 0 0)
(0.05158337142473414 0 0)
(0.03980845052175403 0 0)
(0.02541173965721885 0 0)
(0.01075531290286928 0 0)
(-0.005917822579010256 0 0)
(-0.02361165846787745 0 0)
(-0.04214622756386559 0 0)
(-0.06081636603988135 0 0)
(-0.08295767330822131 0 0)
(-0.1027062256730042 0 0)
(-0.1036244259192483 0 0)
(-0.1034008972874089 0 0)
(-0.1036278962778878 0 0)
(-0.1026808776341986 0 0)
(-0.1024162807033153 0 0)
(-0.099849104295992 0 0)
(-0.09812823648782376 0 0)
(-0.09556764548013891 0 0)
(-0.09002061769808443 0 0)
(-0.08624248882732191 0 0)
(-0.07916847526604796 0 0)
(-0.07165938893478559 0 0)
(-0.0630831869675921 0 0)
(-0.05203848209126982 0 0)
(-0.04125033527698335 0 0)
(-0.02706852158468722 0 0)
(-0.01309941962045848 0 0)
(0.002225574927316494 0 0)
(0.02016737716523003 0 0)
(0.03673033830912446 0 0)
(0.05546684529980043 0 0)
(0.07381345308255965 0 0)
(0.09744153690562185 0 0)
(0.1031295320960598 0 0)
(0.1031005232359457 0 0)
(0.1030174172137773 0 0)
(0.1023545359073964 0 0)
(0.1022667639969673 0 0)
(0.09934621730588862 0 0)
(0.09845723791256633 0 0)
(0.09645454422160193 0 0)
(0.09048689365934688 0 0)
(0.08768026373815171 0 0)
(0.08148974752666167 0 0)
(0.07290023987961655 0 0)
(0.06618637518662476 0 0)
(0.05476117874966187 0 0)
(0.04350317273838776 0 0)
(0.03116225800072281 0 0)
(0.01556434667346361 0 0)
(0.0006949061431280635 0 0)
(-0.01683368098623195 0 0)
(-0.03489465156395397 0 0)
(-0.05339678384569916 0 0)
(-0.07208521055095747 0 0)
(-0.09733887014936014 0 0)
(-0.1024484810545215 0 0)
(-0.1025238237712224 0 0)
(-0.1023746002945926 0 0)
(-0.1020212849900647 0 0)
(-0.1009071294993724 0 0)
(-0.09995977852428649 0 0)
(-0.09751136273676501 0 0)
(-0.09483336145366472 0 0)
(-0.09139239941946725 0 0)
(-0.08606950378092068 0 0)
(-0.08093457595104106 0 0)
(-0.07335055878822171 0 0)
(-0.06522983310032968 0 0)
(-0.05574371352068613 0 0)
(-0.04423093010104288 0 0)
(-0.03228120126648549 0 0)
(-0.01827416465586099 0 0)
(-0.003285458375057329 0 0)
(0.01274586984483412 0 0)
(0.0300079281371355 0 0)
(0.04800134435837019 0 0)
(0.06510280353835132 0 0)
(0.08882628524040477 0 0)
(0.1014271871542992 0 0)
(0.1015961140747571 0 0)
(0.1015008341734288 0 0)
(0.1013682462393125 0 0)
(0.1006143643552452 0 0)
(0.09954211691068711 0 0)
(0.09807964938238378 0 0)
(0.09520418432452959 0 0)
(0.09221391739943251 0 0)
(0.08782514949917575 0 0)
(0.08210442684302013 0 0)
(0.07587371314102045 0 0)
(0.06748100363480533 0 0)
(0.05824043562431057 0 0)
(0.04755049350629163 0 0)
(0.03488514001155334 0 0)
(0.02145899994644719 0 0)
(0.006190451318538902 0 0)
(-0.01023555350739202 0 0)
(-0.02751470410886046 0 0)
(-0.04620287622818459 0 0)
(-0.0636626314983913 0 0)
(-0.08848580998841023 0 0)
(-0.1007971633766455 0 0)
(-0.1008691385199921 0 0)
(-0.10093866860579 0 0)
(-0.1006836231941759 0 0)
(-0.1000043007444451 0 0)
(-0.09892465988976067 0 0)
(-0.09744529011415741 0 0)
(-0.0947513343707567 0 0)
(-0.09151414194434526 0 0)
(-0.08740273568618874 0 0)
(-0.08168805654320241 0 0)
(-0.0754459931678152 0 0)
(-0.06742602327236112 0 0)
(-0.05842785587306397 0 0)
(-0.04809774805435729 0 0)
(-0.03596265978415547 0 0)
(-0.02341623327394733 0 0)
(-0.008664108644079783 0 0)
(0.006675111857942125 0 0)
(0.02298788011453443 0 0)
(0.04061809167947856 0 0)
(0.05808040364232024 0 0)
(0.0764843756099526 0 0)
(0.09902006140372867 0 0)
(0.1013820898312197 0 0)
(0.1015670757255303 0 0)
(0.1015565945018778 0 0)
(0.1007075516393936 0 0)
(0.100284847524982 0 0)
(0.09905922005529598 0 0)
(0.0965496234123477 0 0)
(0.09508148026902886 0 0)
(0.09093300042835334 0 0)
(0.08685803485518702 0 0)
(0.08227720480579824 0 0)
(0.07524601271117216 0 0)
(0.06898532775651746 0 0)
(0.06041758037188676 0 0)
(0.05132288962564319 0 0)
(0.04193038495936811 0 0)
(0.0307232089056018 0 0)
(0.02096052863739222 0 0)
(0.006097762430646869 0 0)
(6.727797810525189e-05 0 0)
(7.411054097622248e-10 0 0)
(-8.968654247180108e-12 0 0)
(-8.91471331016589e-12 0 0)
(-8.421719131530528e-12 0 0)
(-8.00247638424896e-12 0 0)
(-7.398394663769713e-12 0 0)
(-5.80327574866236e-12 0 0)
(-5.020156506645499e-12 0 0)
(-4.784934120382802e-12 0 0)
(-2.639608423935464e-12 0 0)
(-1.621266795655817e-12 0 0)
(-1.204106162024208e-12 0 0)
(-8.379197417010971e-13 0 0)
(-8.879353955277202e-13 0 0)
(-5.764834770155162e-13 0 0)
(-1.019890988006175e-12 0 0)
(-7.568393657202088e-13 0 0)
(-9.424420854003252e-13 0 0)
(-9.387776130883884e-13 0 0)
(-1.074856482375802e-12 0 0)
(-6.52482016705655e-13 0 0)
(-1.019824990132409e-12 0 0)
(-5.531405061081164e-13 0 0)
(-8.598453486297218e-13 0 0)
(-1.570129177972513e-13 0 0)
(-7.859209710369584e-13 0 0)
(-8.078795769025187e-13 0 0)
(-4.430775216212671e-13 0 0)
(-4.747660429572424e-13 0 0)
(-6.525480145796197e-13 0 0)
(-5.214519847720829e-13 0 0)
(-8.090361300060416e-13 0 0)
(-5.390793807681305e-14 0 0)
(-8.862540400533781e-13 0 0)
(-4.747000450833796e-13 0 0)
(-1.842811718918443e-13 0 0)
(-4.678080381908141e-13 0 0)
(-7.608306467812946e-13 0 0)
(-4.680688490660354e-13 0 0)
(-7.857245677253821e-14 0 0)
(-5.230013444986578e-13 0 0)
(-8.615597030411147e-13 0 0)
(5.120520586711236e-14 0 0)
(5.338313570601497e-14 0 0)
(-6.286472423643917e-13 0 0)
(-4.99166570157469e-14 0 0)
(-1.843141708287978e-13 0 0)
(-2.862280081984716e-14 0 0)
(-5.080921862368277e-14 0 0)
(1.029729839726542e-13 0 0)
(-2.587963497294166e-13 0 0)
(3.64802055281267e-13 0 0)
(-2.849080507202577e-14 0 0)
(3.92169306186719e-13 0 0)
(1.344965106239234e-13 0 0)
(4.975166233095258e-14 0 0)
(3.673099744897216e-13 0 0)
(1.570459167342257e-13 0 0)
(2.092065014627606e-13 0 0)
(2.863285953195982e-13 0 0)
(4.207921070065274e-13 0 0)
(3.412280918152197e-13 0 0)
(4.395450450570751e-13 0 0)
(4.232340283410365e-13 0 0)
(2.353213830741888e-13 0 0)
(5.203944284793895e-13 0 0)
(7.863845464644048e-14 0 0)
(2.353213830741854e-13 0 0)
(8.639026275647014e-13 0 0)
(2.628866276013384e-13 0 0)
(5.21484983709048e-13 0 0)
(3.138278419728031e-13 0 0)
(4.706427661483773e-13 0 0)
(4.706757650853679e-13 0 0)
(3.647690563443237e-13 0 0)
(7.802813334384631e-13 0 0)
(2.147471422503832e-13 0 0)
(9.37360249109626e-13 0 0)
(5.491822239839718e-13 0 0)
(3.933258592902665e-13 0 0)
(3.677357800496079e-13 0 0)
(8.629770670199254e-13 0 0)
(2.353873809480884e-13 0 0)
(5.490502282361874e-13 0 0)
(5.503387770875037e-13 0 0)
(3.921363072497653e-13 0 0)
(4.446598802847844e-13 0 0)
(8.314535403685029e-13 0 0)
(-2.28855181741678e-13 0 0)
(9.924577392269557e-13 0 0)
(4.197015517769151e-13 0 0)
(4.706757650853724e-13 0 0)
(6.775063430874155e-13 0 0)
(-7.834146421390341e-14 0 0)
(8.904103157992218e-13 0 0)
(4.441680768508761e-13 0 0)
(2.590603412250304e-13 0 0)
(7.598390883624488e-13 0 0)
(4.706427661484338e-13 0 0)
(8.131594068149565e-13 0 0)
(5.490502282361437e-13 0 0)
(3.137948430358984e-13 0 0)
(9.663098586785488e-13 0 0)
(5.192080570592438e-13 0 0)
(7.360043140212248e-13 0 0)
(2.863615942565241e-13 0 0)
(7.595122796133937e-13 0 0)
(5.490502282361772e-13 0 0)
(7.834130518284409e-13 0 0)
(5.501077845288971e-13 0 0)
(8.093299398182402e-13 0 0)
(8.119698547744062e-13 0 0)
(5.441663855671212e-13 0 0)
(6.585554114153034e-13 0 0)
(5.741405524918348e-13 0 0)
(6.798822665481197e-13 0 0)
(9.425080832741961e-13 0 0)
(5.20493425290205e-13 0 0)
(9.687847789500778e-13 0 0)
(4.716673235041209e-13 0 0)
(8.34420264073907e-13 0 0)
(5.778050248038383e-13 0 0)
(9.127287293508347e-13 0 0)
(4.717663203150126e-13 0 0)
(1.019692994384498e-12 0 0)
(7.060961449704134e-13 0 0)
(8.079785737133566e-13 0 0)
(8.158951379616308e-13 0 0)
(9.372942512358304e-13 0 0)
(2.862295985087046e-13 0 0)
(1.152206388170877e-12 0 0)
(4.981420128016325e-13 0 0)
(6.520562111457287e-13 0 0)
(7.059311502856469e-13 0 0)
(7.090628686757318e-13 0 0)
(5.226085378756517e-13 0 0)
(6.551219316619416e-13 0 0)
(4.706757650853167e-13 0 0)
(1.150591030570434e-12 0 0)
(3.09869559848692e-13 0 0)
(7.870115262665366e-13 0 0)
(6.263671350943194e-13 0 0)
(8.129614131932722e-13 0 0)
(6.786298972541134e-13 0 0)
(7.308234809196195e-13 0 0)
(4.981420128015705e-13 0 0)
(5.751981087845825e-13 0 0)
(6.783329068215211e-13 0 0)
(6.799812633589323e-13 0 0)
(8.103874961109494e-13 0 0)
(4.195365570921362e-13 0 0)
(7.05931150285665e-13 0 0)
(5.489512314252948e-13 0 0)
(7.048405950559501e-13 0 0)
(7.844706081212203e-13 0 0)
(3.921363072497539e-13 0 0)
(6.025653596899507e-13 0 0)
(9.92127749857414e-13 0 0)
(2.88770516654104e-13 0 0)
(8.628780702090164e-13 0 0)
(6.273256945761538e-13 0 0)
(4.981090138646216e-13 0 0)
(8.343872651370059e-13 0 0)
(7.594132828024655e-13 0 0)
(7.309224777304235e-13 0 0)
(1.073076130090581e-12 0 0)
(5.24256894413072e-13 0 0)
(6.78464902569371e-13 0 0)
(7.058651524116954e-13 0 0)
(4.172596304423769e-13 0 0)
(7.607976478442828e-13 0 0)
(5.476658631943937e-13 0 0)
(4.172596304423458e-13 0 0)
(9.126627314769585e-13 0 0)
(2.888035155910816e-13 0 0)
(6.549899359141132e-13 0 0)
(7.844706081212597e-13 0 0)
(3.148194003915972e-13 0 0)
(5.204934252902495e-13 0 0)
(5.266988157475648e-13 0 0)
(5.990658820627445e-13 0 0)
(4.181191931133758e-13 0 0)
(7.857245677255548e-14 0 0)
(4.171606336315421e-13 0 0)
(1.843471697657513e-13 0 0)
(4.70642766148381e-13 0 0)
(4.442670736617277e-13 0 0)
(-1.568809220494652e-13 0 0)
(5.754919185966676e-13 0 0)
(3.923013019345352e-13 0 0)
(7.830846527691896e-14 0 0)
(1.569139209864232e-13 0 0)
(3.657606147631357e-13 0 0)
(-7.946501838048206e-14 0 0)
(3.922683029976008e-13 0 0)
(1.5681492417554e-13 0 0)
(1.060717034258017e-13 0 0)
(5.189977385332971e-14 0 0)
(4.670772906472794e-13 0 0)
(-1.766914163926696e-13 0 0)
(2.076901406731278e-13 0 0)
(-7.840746208776784e-14 0 0)
(7.741590366896967e-14 0 0)
(3.656946168892818e-13 0 0)
(-2.352553852002695e-13 0 0)
(-2.463151975875834e-14 0 0)
(-2.746624771628921e-14 0 0)
(2.352553852003012e-13 0 0)
(-2.353213830742108e-13 0 0)
(-2.89328317961843e-13 0 0)
(3.411620939413669e-13 0 0)
(-7.84074620877454e-14 0 0)
(1.048821513852421e-13 0 0)
(-2.878119571722303e-13 0 0)
(-3.67111980867976e-13 0 0)
(-1.569469199233563e-13 0 0)
(1.580044762160818e-13 0 0)
(-2.089786895244982e-13 0 0)
(-2.342968257184109e-13 0 0)
(-6.59978739065956e-17 0 0)
(-3.933588582271654e-13 0 0)
(9.89968108575889e-17 0 0)
(-2.354863777589487e-13 0 0)
(-1.595208370056999e-13 0 0)
(-1.031677969739047e-13 0 0)
(-2.894603137096553e-13 0 0)
(-2.078551353579127e-13 0 0)
(-1.029069860987362e-13 0 0)
(-1.8454516338744e-13 0 0)
(1.844131676396497e-13 0 0)
(-6.800142622959336e-13 0 0)
(-2.602797115820513e-13 0 0)
(2.550988784804783e-13 0 0)
(-3.610715850953765e-13 0 0)
(-3.924992955561817e-13 0 0)
(-3.136298483511468e-13 0 0)
(-3.124764758679477e-13 0 0)
(-7.853945783556988e-14 0 0)
(-7.074475110752576e-13 0 0)
(1.049151503222246e-13 0 0)
(-1.560543583154222e-13 0 0)
(-6.050402799614502e-13 0 0)
(-1.009568681980611e-13 0 0)
(-2.365439340516385e-13 0 0)
(-6.275236881978694e-13 0 0)
(5.186677491640436e-14 0 0)
(-3.148853982655394e-13 0 0)
(-4.432095173690581e-13 0 0)
(2.051492225277973e-13 0 0)
(-8.591146010861743e-13 0 0)
(-2.473051656960386e-14 0 0)
(-2.62820629727437e-13 0 0)
(-2.353543820111608e-13 0 0)
(-4.707087640223857e-13 0 0)
(-5.390793807680733e-14 0 0)
(-3.373358075649988e-13 0 0)
(-3.148523993285248e-13 0 0)
(-3.911777477679019e-13 0 0)
(-4.181851909872891e-13 0 0)
(-3.422856481079374e-13 0 0)
(-1.024072311137814e-13 0 0)
(-7.844706081212162e-13 0 0)
(-2.089786895245181e-13 0 0)
(-3.401705355224337e-13 0 0)
(-4.706757650853568e-13 0 0)
(-3.147864014546854e-13 0 0)
(-5.491492250470386e-13 0 0)
(-2.634269354967065e-14 0 0)
(-6.036229159826767e-13 0 0)
(-2.593211521002141e-13 0 0)
(-2.863615942565367e-13 0 0)
(-6.534405761875622e-13 0 0)
(-3.137948430358525e-13 0 0)
(-4.967246488228678e-13 0 0)
(-4.461432421374189e-13 0 0)
(-4.442670736617643e-13 0 0)
(-4.970844565089312e-13 0 0)
(-6.000574404815605e-13 0 0)
(-3.922353040606211e-13 0 0)
(-5.490172292991205e-13 0 0)
(-6.535725719353982e-13 0 0)
(-3.138278419728117e-13 0 0)
(-6.289740511135859e-13 0 0)
(-7.580289177606823e-13 0 0)
(-6.298996116584646e-13 0 0)
(-5.181505007665829e-13 0 0)
(-5.7658247382634e-13 0 0)
(-7.843716113104041e-13 0 0)
(-5.492152229208014e-13 0 0)
(-6.285482455536167e-13 0 0)
(-7.324388385200595e-13 0 0)
(-8.889269539465866e-13 0 0)
(-2.861965995717724e-13 0 0)
(-9.698753341796819e-13 0 0)
(-5.739425588701346e-13 0 0)
(-4.696182087925488e-13 0 0)
(-7.0609614497042e-13 0 0)
(-7.060301470964928e-13 0 0)
(-6.286142434275202e-13 0 0)
(-5.490172292992172e-13 0 0)
(-7.05931150285639e-13 0 0)
(-8.61853512853272e-13 0 0)
(-1.069972639706712e-13 0 0)
(-7.55814808364421e-13 0 0)
(-6.275896860716591e-13 0 0)
(-4.706427661484158e-13 0 0)
(-8.628120723350796e-13 0 0)
(-1.069972639706683e-13 0 0)
(-9.124977367921837e-13 0 0)
(-4.743072384603666e-13 0 0)
(-4.681348469399877e-13 0 0)
(-6.264001340311518e-13 0 0)
(-2.078221364209498e-13 0 0)
(-9.698753341797074e-13 0 0)
(-1.568809220494674e-13 0 0)
(-7.059641492225901e-13 0 0)
(-3.402695323333529e-13 0 0)
(-5.215509815829629e-13 0 0)
(-2.38952856449223e-13 0 0)
(-8.093629387552246e-13 0 0)
(-5.20559423164045e-13 0 0)
(-5.501737824028079e-13 0 0)
(-2.851720422160141e-13 0 0)
(-7.84602603869043e-13 0 0)
(-5.765824738263976e-13 0 0)
(-3.948092211429278e-13 0 0)
(-4.157432696527583e-13 0 0)
(-7.076125057599179e-13 0 0)
(-6.260403263451962e-13 0 0)
(-7.335623926866841e-13 0 0)
(-4.18383184609002e-13 0 0)
(-7.845036070582088e-13 0 0)
(-5.206914189119319e-13 0 0)
(-5.767144695741936e-13 0 0)
(-6.311881605098322e-13 0 0)
(-6.252137626111718e-13 0 0)
(-7.326038332047236e-13 0 0)
(-6.00123438355492e-13 0 0)
(-6.278206786304385e-13 0 0)
(-6.001234383554616e-13 0 0)
(-8.12167848396199e-13 0 0)
(-6.288452359861848e-13 0 0)
(-5.743055471766294e-13 0 0)
(-5.79453381341217e-13 0 0)
(-9.13025719783424e-13 0 0)
(-6.788608898127881e-13 0 0)
(-7.847345996168603e-13 0 0)
(-3.926312913040159e-13 0 0)
(-7.063271375290694e-13 0 0)
(-5.769784610698155e-13 0 0)
(-8.367993681550087e-13 0 0)
(-4.711707491395932e-13 0 0)
(-8.631750606416152e-13 0 0)
(-7.836440443871902e-13 0 0)
(-4.723273022432136e-13 0 0)
(-1.070071636517516e-12 0 0)
(-3.415910801216974e-13 0 0)
(-1.127317238157383e-12 0 0)
(-1.042440394116579e-12 0 0)
(-4.997935499594907e-13 0 0)
(-1.14847909860539e-12 0 0)
(-7.339253809931697e-13 0 0)
(-6.280846701260733e-13 0 0)
(-1.176969903677379e-12 0 0)
(-3.142238292162497e-13 0 0)
(-8.633730542633278e-13 0 0)
(-7.06360136466014e-13 0 0)
(-9.418465142250192e-13 0 0)
(-8.148407622893029e-13 0 0)
(-3.35058880915241e-13 0 0)
(-8.409556439008599e-13 0 0)
(-7.561777966708769e-13 0 0)
(-8.35840808673092e-13 0 0)
(-2.633486127186517e-13 0 0)
(-8.629770670198879e-13 0 0)
(-4.228364507874394e-13 0 0)
(-5.1940605068097e-13 0 0)
(-8.631750606415638e-13 0 0)
(-4.711047512657713e-13 0 0)
(-4.225394603548475e-13 0 0)
(-4.411635832779652e-13 0 0)
(-6.278866765043325e-13 0 0)
(-3.92598292367101e-13 0 0)
(-5.505367707093109e-13 0 0)
(-1.124938134076235e-12 0 0)
(-2.867575814999553e-13 0 0)
(-6.313531551946572e-13 0 0)
(-7.028606588387803e-13 0 0)
(-3.141248324053969e-13 0 0)
(-8.632740574524399e-13 0 0)
(-5.494132165426824e-13 0 0)
(-7.06327137529062e-13 0 0)
(-4.434735088647088e-13 0 0)
(-7.06393135402941e-13 0 0)
(-7.612926318985849e-13 0 0)
(-5.255784422014324e-13 0 0)
(-6.517544497825294e-13 0 0)
(-7.583589071301762e-13 0 0)
(-7.063271375291004e-13 0 0)
(-9.129597219094707e-13 0 0)
(-7.338593831192836e-13 0 0)
(-5.494792144165043e-13 0 0)
(-1.255278368954414e-12 0 0)
(-8.122998441439864e-13 0 0)
(-3.950072147646741e-13 0 0)
(-1.068522276790979e-12 0 0)
(-7.063271375290683e-13 0 0)
(-9.416155216663414e-13 0 0)
(-6.00255434103286e-13 0 0)
(-1.333850825726862e-12 0 0)
(-6.827861729999417e-13 0 0)
(-1.048480789889196e-12 0 0)
(-8.074160014749802e-13 0 0)
(-8.354778203665882e-13 0 0)
(-1.125995690368999e-12 0 0)
(-7.845696049320882e-13 0 0)
(-1.255443363639173e-12 0 0)
(-9.414505269815353e-13 0 0)
(-1.176870906866549e-12 0 0)
(-1.124314334894604e-12 0 0)
(-1.103578280006575e-12 0 0)
(-1.565309742867414e-12 0 0)
(-1.09925700957582e-12 0 0)
(-7.571693550897245e-13 0 0)
(-1.097174895927463e-12 0 0)
(-1.255146373206556e-12 0 0)
(-1.334677389460811e-12 0 0)
(-1.098199453283236e-12 0 0)
(-1.281489066756272e-12 0 0)
(-1.256236928436228e-12 0 0)
(-1.22645757451277e-12 0 0)
(-1.019725993321491e-12 0 0)
(-1.648340236749051e-12 0 0)
(-6.5505593378808e-13 0 0)
(-1.803040048339023e-12 0 0)
(-1.38446205072888e-12 0 0)
(-8.914018742179858e-13 0 0)
(-1.724665585188337e-12 0 0)
(-1.070832202377746e-12 0 0)
(-8.630100659568211e-13 0 0)
(-1.333619833168234e-12 0 0)
)
;

boundaryField
{
    inlet
    {
        type            zeroGradient;
    }
    outlet
    {
        type            pressureInletOutletVelocity;
        value           uniform (-1.333619833168234e-12 0 0);
    }
    frontAndBack
    {
        type            empty;
    }
}


// ************************************************************************* //
