/*--------------------------------*- C++ -*----------------------------------*\
| =========                 |                                                 |
| \\      /  F ield         | OpenFOAM: The Open Source CFD Toolbox           |
|  \\    /   O peration     | Version:  v2012                                 |
|   \\  /    A nd           | Website:  www.openfoam.com                      |
|    \\/     M anipulation  |                                                 |
\*---------------------------------------------------------------------------*/
FoamFile
{
    version     2.0;
    format      ascii;
    class       volVectorField;
    location    "0.004";
    object      UMean;
}
// * * * * * * * * * * * * * * * * * * * * * * * * * * * * * * * * * * * * * //

dimensions      [0 1 -1 0 0 0 0];


internalField   nonuniform List<vector> 
1000
(
(-4.037066012288669e-05 0 0)
(4.828503696931115e-05 0 0)
(7.80595908859804e-05 0 0)
(0.0002472590811030965 0 0)
(0.0002823225005626257 0 0)
(0.0004213815538844625 0 0)
(0.0006261125688219392 0 0)
(0.0007900169289061956 0 0)
(0.0009410114322023426 0 0)
(0.001203165989969842 0 0)
(0.001403503316008249 0 0)
(0.00158655439486361 0 0)
(0.001823148327990357 0 0)
(0.002060088271516251 0 0)
(0.00222000860751343 0 0)
(0.002416827861239906 0 0)
(0.002641770887996818 0 0)
(0.002766749997925095 0 0)
(0.002913058187748061 0 0)
(0.003043078423403203 0 0)
(0.003129606957633519 0 0)
(0.003193876875413501 0 0)
(0.003205236182343011 0 0)
(0.003252107209008947 0 0)
(0.003222712194288356 0 0)
(0.003147949083381207 0 0)
(0.003046588734446632 0 0)
(0.003006491602397076 0 0)
(0.002855420389110971 0 0)
(0.002623230445262082 0 0)
(0.002527391615632662 0 0)
(0.002357048064670112 0 0)
(0.002064125767271029 0 0)
(0.001839724736362074 0 0)
(0.001746524739973302 0 0)
(0.001462960704237703 0 0)
(0.001221547515202916 0 0)
(0.00107002867422434 0 0)
(0.0008947737580082554 0 0)
(0.0006736169229105565 0 0)
(0.0004840510469460533 0 0)
(0.0003922322442630362 0 0)
(0.0002381259794820888 0 0)
(0.0001408508183294683 0 0)
(5.077910991415996e-05 0 0)
(3.513821325979849e-05 0 0)
(2.258414136294496e-05 0 0)
(1.34423950300957e-05 0 0)
(7.535491413272207e-05 0 0)
(0.0001495531043562821 0 0)
(0.0002561333786169565 0 0)
(0.0003739620642772769 0 0)
(0.0005367842331096136 0 0)
(0.0006868156578407308 0 0)
(0.0009164420355193068 0 0)
(0.001123351235349272 0 0)
(0.001316752379864898 0 0)
(0.001531180601690274 0 0)
(0.001744713845741357 0 0)
(0.001941656456109241 0 0)
(0.002143738118625433 0 0)
(0.002343674717546948 0 0)
(0.002500607957456394 0 0)
(0.002686938107481683 0 0)
(0.002859222556011368 0 0)
(0.002954768657433951 0 0)
(0.00307827330198924 0 0)
(0.003160906399374944 0 0)
(0.003219238309061673 0 0)
(0.003229105872093854 0 0)
(0.00322123294673459 0 0)
(0.003178381564875461 0 0)
(0.003124478494133754 0 0)
(0.003012598205956949 0 0)
(0.002883819353570685 0 0)
(0.002759275105004255 0 0)
(0.002576339587205516 0 0)
(0.002364288739355134 0 0)
(0.002172583452389818 0 0)
(0.001971952291827217 0 0)
(0.001732768134640605 0 0)
(0.001558875735254786 0 0)
(0.001365693293882306 0 0)
(0.001136083603880063 0 0)
(0.000952749698028792 0 0)
(0.0007905563913195741 0 0)
(0.0006108264576707558 0 0)
(0.0004322091043264727 0 0)
(0.0003175430268046378 0 0)
(0.0002079122937586663 0 0)
(0.000106279869115479 0 0)
(3.913295540170895e-05 0 0)
(2.544056566481994e-05 0 0)
(2.284329166350803e-05 0 0)
(4.978295039504237e-05 0 0)
(0.0001074096136792624 0 0)
(0.0002160717859317869 0 0)
(0.0003287244025055045 0 0)
(0.0004754395660932622 0 0)
(0.0006467447489588421 0 0)
(0.0008458869732504927 0 0)
(0.001060345842446006 0 0)
(0.001266750686670603 0 0)
(0.001451211398586556 0 0)
(0.00166423550949017 0 0)
(0.001884072787220747 0 0)
(0.0020500124892395 0 0)
(0.002244352948815517 0 0)
(0.002448971357485137 0 0)
(0.002602152769499925 0 0)
(0.002748602657465212 0 0)
(0.002912360916117147 0 0)
(0.003023792402850506 0 0)
(0.003088530917767882 0 0)
(0.003192124534112915 0 0)
(0.003236237988205567 0 0)
(0.003201261530255014 0 0)
(0.003211508439946847 0 0)
(0.003171283918322394 0 0)
(0.003036094964747073 0 0)
(0.002939525542523617 0 0)
(0.002840591636680142 0 0)
(0.002614472386087574 0 0)
(0.002416143973731398 0 0)
(0.002262709816393573 0 0)
(0.002027480612487152 0 0)
(0.001803549688387205 0 0)
(0.001640641148768011 0 0)
(0.001443652727904871 0 0)
(0.001205506144991222 0 0)
(0.001057481396061403 0 0)
(0.000874327900694275 0 0)
(0.000667401984160485 0 0)
(0.0005303002827494839 0 0)
(0.0004126054130085662 0 0)
(0.0002445275520869109 0 0)
(0.0001495886225165611 0 0)
(0.0001253760736399511 0 0)
(2.167302664588533e-05 0 0)
(1.962397403401126e-05 0 0)
(5.51327093713573e-05 0 0)
(9.544387958954875e-05 0 0)
(0.0001413375741166185 0 0)
(0.0003005912522163331 0 0)
(0.0004236631964619918 0 0)
(0.00057310140019537 0 0)
(0.0008077132403755775 0 0)
(0.0009854226889081867 0 0)
(0.001205101338597569 0 0)
(0.001398064292110086 0 0)
(0.001587567638966712 0 0)
(0.001793622010976514 0 0)
(0.002005737580762549 0 0)
(0.002158747114653589 0 0)
(0.002347948896158168 0 0)
(0.002569719378631107 0 0)
(0.002659826787676709 0 0)
(0.002823738142017205 0 0)
(0.00298858638809385 0 0)
(0.003060181230247572 0 0)
(0.003110750049308338 0 0)
(0.003223747446167801 0 0)
(0.003233566308942621 0 0)
(0.003168196932101369 0 0)
(0.003200265767055064 0 0)
(0.003115488050228231 0 0)
(0.002972443592150356 0 0)
(0.002861347728680028 0 0)
(0.002743629374843994 0 0)
(0.002471989007178567 0 0)
(0.002297399801500688 0 0)
(0.002123264785198099 0 0)
(0.001894095262179593 0 0)
(0.001694560438203848 0 0)
(0.001524481749268292 0 0)
(0.001310317479775746 0 0)
(0.001106376300863503 0 0)
(0.0009752251778016494 0 0)
(0.0007555155327612016 0 0)
(0.0005973570386220883 0 0)
(0.0004863159659564187 0 0)
(0.0003242622582304755 0 0)
(0.0002036410308712129 0 0)
(0.0001519564420785252 0 0)
(8.426097703416677e-05 0 0)
(1.65517110605734e-05 0 0)
(6.257228182441177e-05 0 0)
(7.891007471082774e-05 0 0)
(0.0001259701628124074 0 0)
(0.000246621297222926 0 0)
(0.000381945097953735 0 0)
(0.0005137152724414738 0 0)
(0.0007462231201728629 0 0)
(0.0009425427707483771 0 0)
(0.001119110480251305 0 0)
(0.001335111267845626 0 0)
(0.001535433653107576 0 0)
(0.001715155279706137 0 0)
(0.001905060519333232 0 0)
(0.002127995193364257 0 0)
(0.002261235005711968 0 0)
(0.002455027542196531 0 0)
(0.002628053102266382 0 0)
(0.002758812604967953 0 0)
(0.002893175668001157 0 0)
(0.003009209421257552 0 0)
(0.003099229518234587 0 0)
(0.003156869675888293 0 0)
(0.003210028576837053 0 0)
(0.003192102909315107 0 0)
(0.003198020211255938 0 0)
(0.003118370238051026 0 0)
(0.003036895072581525 0 0)
(0.002918978726737561 0 0)
(0.002763587518097549 0 0)
(0.002557257144925899 0 0)
(0.00237194317452486 0 0)
(0.002176140954645623 0 0)
(0.001962142705625453 0 0)
(0.001788178764336947 0 0)
(0.001587505264959518 0 0)
(0.001381343979546907 0 0)
(0.001211008234700674 0 0)
(0.00103554292780434 0 0)
(0.0008355880927752167 0 0)
(0.0006900526139759888 0 0)
(0.0005480226336405077 0 0)
(0.00038893217459576 0 0)
(0.0002893723077556685 0 0)
(0.0001928836188338154 0 0)
(0.000116758366415805 0 0)
(6.455806833091467e-05 0 0)
(7.428159324739982e-05 0 0)
(7.450027856747496e-05 0 0)
(0.0001167836108827173 0 0)
(0.000215695428333643 0 0)
(0.0003339264509794974 0 0)
(0.0004749348765425768 0 0)
(0.0006808581205237475 0 0)
(0.0008794571025696072 0 0)
(0.001066934205654371 0 0)
(0.001266769354616785 0 0)
(0.001467365356397361 0 0)
(0.001651662160291847 0 0)
(0.001840195281778035 0 0)
(0.002038335106498069 0 0)
(0.00221166736234261 0 0)
(0.002380426303360383 0 0)
(0.002547251916928193 0 0)
(0.002702688630075541 0 0)
(0.002832126107495391 0 0)
(0.002944882582661431 0 0)
(0.003060354224439354 0 0)
(0.00311882363474037 0 0)
(0.003169954231928064 0 0)
(0.003193366154718949 0 0)
(0.003186644062048875 0 0)
(0.003135451004003537 0 0)
(0.003064982650598687 0 0)
(0.002958642316659477 0 0)
(0.002812725236155046 0 0)
(0.002624495391882659 0 0)
(0.002432895727512983 0 0)
(0.002234844217738148 0 0)
(0.002038542099834605 0 0)
(0.00184232120043327 0 0)
(0.001668100598517636 0 0)
(0.001458775756418715 0 0)
(0.001277010317752388 0 0)
(0.001100924020064854 0 0)
(0.0009330194807762384 0 0)
(0.0007471644264065708 0 0)
(0.0006109256500688581 0 0)
(0.0004739531581430202 0 0)
(0.0003371792324021787 0 0)
(0.0002461342866551702 0 0)
(0.0001658515179337211 0 0)
(0.0001094895828591756 0 0)
(7.273350135393231e-05 0 0)
(9.53708743066149e-05 0 0)
(0.0001202402865573363 0 0)
(0.0001848782535098427 0 0)
(0.0003053238102336906 0 0)
(0.0004251286335002502 0 0)
(0.0006298296505154665 0 0)
(0.0008105207635776385 0 0)
(0.001019258948304851 0 0)
(0.001186967273654161 0 0)
(0.001417579262303261 0 0)
(0.001574961475561568 0 0)
(0.001778506193889993 0 0)
(0.001965899475098644 0 0)
(0.002142213445788408 0 0)
(0.002308958040248393 0 0)
(0.002475448179870349 0 0)
(0.002650570468569401 0 0)
(0.002748762449921866 0 0)
(0.002906038619735198 0 0)
(0.002998437871280062 0 0)
(0.003080719385403016 0 0)
(0.003131244627709085 0 0)
(0.003182357264120867 0 0)
(0.003171023633587629 0 0)
(0.003129907730412094 0 0)
(0.003103436843542712 0 0)
(0.002981450700316086 0 0)
(0.002860910555273711 0 0)
(0.002683580488660057 0 0)
(0.002510608213190554 0 0)
(0.002290039937898549 0 0)
(0.002108730451784089 0 0)
(0.001926414023914003 0 0)
(0.001729278177703029 0 0)
(0.001535705807952769 0 0)
(0.001357294206765958 0 0)
(0.001186073481301678 0 0)
(0.0009866854897406263 0 0)
(0.0008418175718637785 0 0)
(0.0006836692631641376 0 0)
(0.0005363041066311962 0 0)
(0.000402239901244658 0 0)
(0.0003109216093181425 0 0)
(0.0002097343179867348 0 0)
(0.0001427969111106957 0 0)
(0.0001168086275692842 0 0)
(9.975462989558004e-05 0 0)
(0.0001215018537643961 0 0)
(0.0001776916684432813 0 0)
(0.0002801200771418131 0 0)
(0.0003830484809433965 0 0)
(0.0005625234442533307 0 0)
(0.0007620468935053239 0 0)
(0.0009456404447180426 0 0)
(0.001138480052482694 0 0)
(0.001332385247070761 0 0)
(0.001519504345167945 0 0)
(0.001707294142453827 0 0)
(0.001894566552554973 0 0)
(0.002068347883425485 0 0)
(0.002245649075471149 0 0)
(0.002413393497988147 0 0)
(0.002563088966262658 0 0)
(0.002709357272449389 0 0)
(0.00283735312749709 0 0)
(0.002940157032424767 0 0)
(0.003037263436816262 0 0)
(0.003110693245200956 0 0)
(0.003134355075286218 0 0)
(0.003154013818077432 0 0)
(0.003156026214693229 0 0)
(0.0030920324017341 0 0)
(0.003002405145415108 0 0)
(0.002908847196058295 0 0)
(0.002759321945856647 0 0)
(0.002542403974390837 0 0)
(0.002376562793750743 0 0)
(0.002180730469548571 0 0)
(0.001989498762009477 0 0)
(0.001796358959786192 0 0)
(0.00161879872713612 0 0)
(0.001430844737689543 0 0)
(0.00124404184591789 0 0)
(0.001082519438394516 0 0)
(0.0009042804504455903 0 0)
(0.0007551732078182561 0 0)
(0.0005999476068686456 0 0)
(0.000481076739092624 0 0)
(0.0003533014984974685 0 0)
(0.0002678896725445998 0 0)
(0.0001907352663736693 0 0)
(0.0001446229220314185 0 0)
(0.0001312957419883652 0 0)
(0.0001233439195844729 0 0)
(0.0001828263118795423 0 0)
(0.0002535542949641499 0 0)
(0.0003646274596682285 0 0)
(0.0005003939771766773 0 0)
(0.0007170231058468387 0 0)
(0.0008809478279136363 0 0)
(0.001085991319964673 0 0)
(0.00127078488001794 0 0)
(0.001449552823468534 0 0)
(0.00164624245599599 0 0)
(0.001825487935166285 0 0)
(0.002011008963695008 0 0)
(0.002161650475665211 0 0)
(0.002366075926478802 0 0)
(0.002489003545131425 0 0)
(0.002646255462973604 0 0)
(0.002776840856979991 0 0)
(0.00289847929125556 0 0)
(0.002984531983989624 0 0)
(0.003060188358597443 0 0)
(0.003123134174862424 0 0)
(0.003124527486209595 0 0)
(0.003144423195140483 0 0)
(0.003090370754769501 0 0)
(0.003035417883947905 0 0)
(0.002927035561167204 0 0)
(0.002806289045856147 0 0)
(0.00261165857946975 0 0)
(0.002428687802613409 0 0)
(0.002251974274889212 0 0)
(0.002046498086225775 0 0)
(0.001870701299861636 0 0)
(0.001684891468120864 0 0)
(0.001503507593191731 0 0)
(0.001309854177911818 0 0)
(0.001159976739769155 0 0)
(0.000978318596752224 0 0)
(0.0008098352251425733 0 0)
(0.0006829642891851913 0 0)
(0.0005381773148153391 0 0)
(0.0004117156233369137 0 0)
(0.0003194271681609751 0 0)
(0.0002488843587827325 0 0)
(0.0001685242467826508 0 0)
(0.0001558259282488242 0 0)
(0.0001572850926965316 0 0)
(0.0001732269398885963 0 0)
(0.0002418619555911632 0 0)
(0.0003474759019452473 0 0)
(0.0004645298380960018 0 0)
(0.0006398565866759096 0 0)
(0.0008493677908433133 0 0)
(0.0010205562155638 0 0)
(0.001197581136586992 0 0)
(0.001402790917823517 0 0)
(0.001579344974579828 0 0)
(0.001756114049362342 0 0)
(0.001934675658491081 0 0)
(0.002122606123923357 0 0)
(0.002265938836349188 0 0)
(0.002440744796724886 0 0)
(0.002587689378404632 0 0)
(0.002710611485594409 0 0)
(0.002837311104907077 0 0)
(0.002943941579660238 0 0)
(0.003020848758787633 0 0)
(0.003070930764088401 0 0)
(0.003125410171109152 0 0)
(0.003116852545551474 0 0)
(0.003094857024491687 0 0)
(0.003048849132437286 0 0)
(0.002956745168676175 0 0)
(0.002831504598197197 0 0)
(0.002688330670601903 0 0)
(0.002487024906333116 0 0)
(0.002297716671932333 0 0)
(0.002130733365550303 0 0)
(0.00193213513204069 0 0)
(0.00174769931301606 0 0)
(0.001569222455628582 0 0)
(0.001402800937967218 0 0)
(0.001204191757275712 0 0)
(0.001059288755116387 0 0)
(0.0008899329902759894 0 0)
(0.0007347689272173968 0 0)
(0.0006077700969720863 0 0)
(0.0004749857205412868 0 0)
(0.0003739629616916923 0 0)
(0.0002781241925118002 0 0)
(0.0002295670759142744 0 0)
(0.0001712346080480642 0 0)
(0.0001738099918816251 0 0)
(0.0001826278170497078 0 0)
(0.0002371902414593616 0 0)
(0.0003178438375366279 0 0)
(0.000435714535254043 0 0)
(0.0005897046950396993 0 0)
(0.0007778820584024039 0 0)
(0.0009713729077074029 0 0)
(0.001141878499551188 0 0)
(0.001337679761892111 0 0)
(0.001508563547257496 0 0)
(0.00170301664251072 0 0)
(0.001864724977306249 0 0)
(0.002051066232852239 0 0)
(0.002208910061653213 0 0)
(0.002370965718930133 0 0)
(0.002523449634013702 0 0)
(0.002652981834755716 0 0)
(0.002786849135991164 0 0)
(0.002882090324299572 0 0)
(0.002985886601723784 0 0)
(0.003034082335554426 0 0)
(0.003091025124968864 0 0)
(0.003100721322108728 0 0)
(0.003096285127403364 0 0)
(0.003047351780957561 0 0)
(0.002973676769897422 0 0)
(0.00288103210550261 0 0)
(0.002725459132933516 0 0)
(0.002551143957002142 0 0)
(0.002365803404273811 0 0)
(0.002186427001887308 0 0)
(0.001997987580046306 0 0)
(0.001821813437383013 0 0)
(0.001642174534950564 0 0)
(0.001456883050974187 0 0)
(0.001294404668252499 0 0)
(0.001119064146343847 0 0)
(0.0009611360079480021 0 0)
(0.0008049929634111485 0 0)
(0.0006709377571667223 0 0)
(0.0005368405312574593 0 0)
(0.00042739835068808 0 0)
(0.0003365863324131581 0 0)
(0.0002599540735741562 0 0)
(0.0002161998609356103 0 0)
(0.0001901852048945227 0 0)
(0.0002009960897622228 0 0)
(0.000230255643839897 0 0)
(0.0003100223445175074 0 0)
(0.0004057641987267941 0 0)
(0.0005398170248728347 0 0)
(0.0007359920858380764 0 0)
(0.0009030901701553064 0 0)
(0.001097203238357476 0 0)
(0.001262996312105811 0 0)
(0.001463893829423931 0 0)
(0.001623642751093515 0 0)
(0.001810703946114391 0 0)
(0.001982176200887292 0 0)
(0.002144757043883427 0 0)
(0.002311522509715938 0 0)
(0.002453741866367076 0 0)
(0.00260775708333636 0 0)
(0.002715504105072453 0 0)
(0.002848301553527385 0 0)
(0.002926409749763582 0 0)
(0.003009175699556323 0 0)
(0.003055747911240601 0 0)
(0.00308364664498193 0 0)
(0.003086334072751417 0 0)
(0.003046643643724473 0 0)
(0.003000395710004844 0 0)
(0.002893123568214276 0 0)
(0.002786976561797124 0 0)
(0.002604790046984514 0 0)
(0.002432600973198511 0 0)
(0.002241207334488664 0 0)
(0.002064564610328197 0 0)
(0.001878176518740052 0 0)
(0.001700658969970774 0 0)
(0.001520545738881478 0 0)
(0.001344075448489661 0 0)
(0.001174723597076747 0 0)
(0.001003159578132225 0 0)
(0.0008514124583463669 0 0)
(0.0006907595060354134 0 0)
(0.0005599108086392429 0 0)
(0.0004222956321715599 0 0)
(0.0003140505920379876 0 0)
(0.0002118966251131166 0 0)
(0.0001290677692265883 0 0)
(6.880292432691635e-05 0 0)
(1.979796579795186e-05 0 0)
(2.184346915117973e-07 0 0)
(2.146110361853703e-12 0 0)
(-2.809776211991196e-13 0 0)
(-2.951278044676625e-13 0 0)
(-2.391942486605498e-13 0 0)
(-2.734061041087924e-13 0 0)
(-2.659069222102056e-13 0 0)
(-2.206022144788223e-13 0 0)
(-2.330197594736133e-13 0 0)
(-2.320647979254603e-13 0 0)
(-2.1245040457165e-13 0 0)
(-2.03032060541152e-13 0 0)
(-2.083704148941948e-13 0 0)
(-1.902728356713897e-13 0 0)
(-2.21921008077894e-13 0 0)
(-2.195201649625516e-13 0 0)
(-2.05650298533929e-13 0 0)
(-1.934483232277869e-13 0 0)
(-2.262209561393428e-13 0 0)
(-2.006610231740987e-13 0 0)
(-1.983260421252146e-13 0 0)
(-2.172434009008329e-13 0 0)
(-2.168072232465714e-13 0 0)
(-2.117776217379587e-13 0 0)
(-2.076617216303069e-13 0 0)
(-1.941683072215866e-13 0 0)
(-2.150284285219046e-13 0 0)
(-2.039259753343487e-13 0 0)
(-2.115425940162869e-13 0 0)
(-2.092865673209057e-13 0 0)
(-2.190597770894565e-13 0 0)
(-2.07421481324959e-13 0 0)
(-2.256322278750705e-13 0 0)
(-1.86763579432032e-13 0 0)
(-2.186406598882852e-13 0 0)
(-1.868182216106727e-13 0 0)
(-2.284306388571093e-13 0 0)
(-2.126148970016553e-13 0 0)
(-1.596712054840227e-13 0 0)
(-2.530719494651125e-13 0 0)
(-1.959510449721349e-13 0 0)
(-1.996242959217382e-13 0 0)
(-2.23698088211492e-13 0 0)
(-2.071500704804203e-13 0 0)
(-1.869997475836192e-13 0 0)
(-2.165043423429495e-13 0 0)
(-2.195217755658931e-13 0 0)
(-2.037461639524807e-13 0 0)
(-2.035721728356609e-13 0 0)
(-2.089278955417723e-13 0 0)
(-2.170709784871176e-13 0 0)
(-2.008726396867403e-13 0 0)
(-2.042232670568605e-13 0 0)
(-2.060081564262944e-13 0 0)
(-1.668337808133588e-13 0 0)
(-2.329460508494071e-13 0 0)
(-2.033657084762849e-13 0 0)
(-1.92468604096826e-13 0 0)
(-1.773814977765472e-13 0 0)
(-2.09655603575453e-13 0 0)
(-1.940474409945461e-13 0 0)
(-1.843279474116289e-13 0 0)
(-2.337739394195821e-13 0 0)
(-1.182402122544182e-13 0 0)
(-2.495499713006638e-13 0 0)
(-1.930435304365428e-13 0 0)
(-2.020953249031187e-13 0 0)
(-1.679247045749123e-13 0 0)
(-1.887180966246719e-13 0 0)
(-1.912724597517221e-13 0 0)
(-1.71289939489317e-13 0 0)
(-2.020884581587979e-13 0 0)
(-1.652203274342029e-13 0 0)
(-1.764989672893369e-13 0 0)
(-1.820638200790408e-13 0 0)
(-1.800515749773958e-13 0 0)
(-1.794955945970126e-13 0 0)
(-1.719924093550885e-13 0 0)
(-1.862148006061148e-13 0 0)
(-1.438082976457286e-13 0 0)
(-2.009071102801386e-13 0 0)
(-1.623464868884816e-13 0 0)
(-1.944691653725967e-13 0 0)
(-1.687941615667938e-13 0 0)
(-1.648085827026482e-13 0 0)
(-1.786353700306223e-13 0 0)
(-1.487760470411709e-13 0 0)
(-1.89439924075873e-13 0 0)
(-1.126197224825933e-13 0 0)
(-2.191882818987941e-13 0 0)
(-1.381475421555849e-13 0 0)
(-1.975981553195015e-13 0 0)
(-1.708490383295413e-13 0 0)
(-1.463918172009896e-13 0 0)
(-1.647022988797556e-13 0 0)
(-1.883552154453555e-13 0 0)
(-1.399002664439639e-13 0 0)
(-1.679556524101361e-13 0 0)
(-1.782119833734696e-13 0 0)
(-1.400630359028799e-13 0 0)
(-1.76298503737124e-13 0 0)
(-1.704020425249517e-13 0 0)
(-1.601607561337358e-13 0 0)
(-1.621817801345655e-13 0 0)
(-1.400477001909294e-13 0 0)
(-1.76131593688539e-13 0 0)
(-1.624513388800806e-13 0 0)
(-1.537675861261208e-13 0 0)
(-1.44171187205079e-13 0 0)
(-1.705712333203187e-13 0 0)
(-1.42133437561297e-13 0 0)
(-1.594695853779572e-13 0 0)
(-1.532145292025662e-13 0 0)
(-9.572771785577575e-14 0 0)
(-1.968415138231226e-13 0 0)
(-1.234332946294735e-13 0 0)
(-1.510616151422016e-13 0 0)
(-1.366474452874902e-13 0 0)
(-1.454838945394244e-13 0 0)
(-1.402735807961106e-13 0 0)
(-1.284046791508828e-13 0 0)
(-1.356725704098786e-13 0 0)
(-1.383836935470539e-13 0 0)
(-1.289070808535916e-13 0 0)
(-1.306098778272024e-13 0 0)
(-1.355162474275583e-13 0 0)
(-1.216270936195051e-13 0 0)
(-1.382886400236826e-13 0 0)
(-1.376323417118529e-13 0 0)
(-1.152081798672899e-13 0 0)
(-1.279140736418418e-13 0 0)
(-1.274169801305166e-13 0 0)
(-1.160632084614905e-13 0 0)
(-1.126586254416911e-13 0 0)
(-9.654083483807097e-14 0 0)
(-1.306585709874564e-13 0 0)
(-8.743877012809345e-14 0 0)
(-1.213534627201892e-13 0 0)
(-1.051499197161675e-13 0 0)
(-7.076769989699579e-14 0 0)
(-1.136039424151207e-13 0 0)
(-1.183175892632383e-13 0 0)
(-8.231376363886594e-14 0 0)
(-1.023326147121846e-13 0 0)
(-1.058685155490126e-13 0 0)
(-9.073148040548452e-14 0 0)
(-7.558352489401388e-14 0 0)
(-9.976623268754583e-14 0 0)
(-9.360737899406099e-14 0 0)
(-4.909563518990511e-14 0 0)
(-1.141335612194079e-13 0 0)
(-9.658798406082955e-14 0 0)
(-9.323153642563413e-14 0 0)
(-8.209593173360748e-14 0 0)
(-8.024366988038144e-14 0 0)
(-8.907410104189526e-14 0 0)
(-8.739743279035153e-14 0 0)
(-6.747221178915149e-14 0 0)
(-8.746159879591011e-14 0 0)
(-8.176486406511493e-14 0 0)
(-7.738285915966553e-14 0 0)
(-8.800471162480338e-14 0 0)
(-6.031651996424406e-14 0 0)
(-8.450427795494165e-14 0 0)
(-7.794449741859783e-14 0 0)
(-6.798606623372667e-14 0 0)
(-7.21620354275735e-14 0 0)
(-9.131690835392758e-14 0 0)
(-6.371033677112728e-14 0 0)
(-7.824331454844951e-14 0 0)
(-5.82469588412709e-14 0 0)
(-8.762844878865647e-14 0 0)
(-7.336051219522249e-14 0 0)
(-8.779375661396595e-14 0 0)
(-2.859483675888182e-14 0 0)
(-1.293732534398954e-13 0 0)
(-3.485376726268866e-14 0 0)
(-9.189526387578322e-14 0 0)
(-8.303138142832264e-14 0 0)
(-2.958922348997003e-14 0 0)
(-9.618845552905648e-14 0 0)
(-7.457745433705394e-14 0 0)
(-3.981206964715587e-14 0 0)
(-7.733240150258951e-14 0 0)
(-7.1309938670256e-14 0 0)
(-5.422056486319493e-14 0 0)
(-6.671996913822431e-14 0 0)
(-6.215837555484922e-14 0 0)
(-4.863920075440526e-14 0 0)
(-8.375226638798296e-14 0 0)
(-1.927540408166422e-14 0 0)
(-9.051376924806605e-14 0 0)
(-7.663468866252342e-14 0 0)
(-3.724611627026816e-14 0 0)
(-5.802646985340223e-14 0 0)
(-6.335902908153609e-14 0 0)
(-6.907334675084262e-14 0 0)
(-6.658541335442148e-14 0 0)
(-4.954420833919434e-14 0 0)
(-3.159471421506667e-14 0 0)
(-9.99356545668891e-14 0 0)
(-4.471800221971364e-14 0 0)
(-5.753607028818912e-14 0 0)
(-6.669662662664952e-14 0 0)
(-4.263975577359377e-14 0 0)
(-6.66865450240681e-14 0 0)
(-7.359659515079485e-14 0 0)
(-3.312951276056008e-14 0 0)
(-7.824857068943275e-14 0 0)
(-6.495223405952263e-14 0 0)
(-2.816795184752376e-14 0 0)
(-9.936586388192091e-14 0 0)
(-1.322058875457187e-14 0 0)
(-5.443882541622726e-14 0 0)
(-6.221795556285032e-14 0 0)
(-2.257752784984279e-14 0 0)
(-9.327986125554503e-14 0 0)
(7.943529000625506e-15 0 0)
(-6.242605769735815e-14 0 0)
(-6.498865032799016e-14 0 0)
(-3.469240449490682e-14 0 0)
(-3.801071289049848e-14 0 0)
(-5.392881204144639e-14 0 0)
(-5.667143063941418e-14 0 0)
(-2.356343546321517e-14 0 0)
(-8.668291088134636e-14 0 0)
(-3.669035859381479e-14 0 0)
(-6.467774586467478e-14 0 0)
(-4.087571625127066e-14 0 0)
(-2.971596165785638e-14 0 0)
(-5.011295457654033e-14 0 0)
(-5.356623064359915e-14 0 0)
(-5.934870101466925e-14 0 0)
(1.33190714601041e-14 0 0)
(-7.962771613447929e-14 0 0)
(-6.289295871289165e-14 0 0)
(-3.22451738446497e-14 0 0)
(-4.415392958210097e-14 0 0)
(-5.205296644255959e-14 0 0)
(-5.890093311056453e-14 0 0)
(-7.812933002822105e-15 0 0)
(-9.623000745225992e-14 0 0)
(7.578234519566728e-16 0 0)
(-8.432857224705053e-14 0 0)
(-4.953438499237137e-14 0 0)
(-6.699286348984814e-14 0 0)
(-3.582112430585445e-14 0 0)
(-5.811700607669974e-14 0 0)
(-6.929160730387304e-14 0 0)
(-7.078108872251607e-15 0 0)
(-1.065903430001912e-13 0 0)
(-2.043738599483938e-14 0 0)
(-6.704513972570701e-14 0 0)
(-7.568305434037041e-14 0 0)
(-3.800020264016248e-14 0 0)
(-4.874288755053643e-14 0 0)
(-8.635903487881001e-14 0 0)
(-3.668440119537781e-14 0 0)
(-6.805741729523682e-14 0 0)
(-7.205105527096858e-14 0 0)
(-1.859483715227822e-14 0 0)
(-9.788256947274496e-14 0 0)
(-6.322778199361185e-14 0 0)
(-7.235588184960707e-14 0 0)
(-6.779158725170776e-14 0 0)
(-6.397134973311152e-14 0 0)
(-7.434207504512365e-14 0 0)
(-4.972540965208619e-14 0 0)
(-9.856398531761589e-14 0 0)
(-8.65377458203807e-15 0 0)
(-1.348461739884263e-13 0 0)
(-5.019652006777411e-14 0 0)
(-5.645898374145264e-14 0 0)
(-9.631423444529347e-14 0 0)
(-4.893278053499217e-14 0 0)
(-8.544924335811079e-14 0 0)
(-3.972242627122291e-14 0 0)
(-8.84509457415161e-14 0 0)
(-8.046963771317584e-14 0 0)
(-6.446955853417208e-14 0 0)
(-4.299731414606924e-14 0 0)
(-7.591063277649783e-14 0 0)
(-7.825092825214654e-14 0 0)
(-6.193852115858376e-14 0 0)
(-5.602045690448931e-14 0 0)
(-3.20248824205655e-14 0 0)
(-1.156738553699266e-13 0 0)
(-4.64098874669785e-14 0 0)
(-6.517894682006377e-14 0 0)
(-8.033484069526027e-14 0 0)
(-7.332379640686437e-14 0 0)
(-3.549112825678627e-14 0 0)
(-7.364779138719255e-14 0 0)
(-9.948715011508975e-14 0 0)
(-1.610892650845584e-14 0 0)
(-8.601401939777674e-14 0 0)
(-8.357662911598803e-14 0 0)
(-8.670369014796334e-14 0 0)
(-5.047722365524769e-14 0 0)
(-7.947289341937174e-14 0 0)
(-7.330642779223094e-14 0 0)
(-5.370970257294348e-14 0 0)
(-9.022469026901945e-14 0 0)
(-7.670219027417569e-14 0 0)
(-7.150504386379548e-14 0 0)
(-7.110904673183011e-14 0 0)
(-8.58346618038362e-14 0 0)
(-9.268447219078589e-14 0 0)
(-5.938095155331546e-14 0 0)
(-1.082887599200892e-13 0 0)
(-4.618789821193553e-14 0 0)
(-1.191689410928094e-13 0 0)
(-5.931408453325869e-14 0 0)
(-1.112532825771115e-13 0 0)
(-6.831081655349927e-14 0 0)
(-1.059560596179906e-13 0 0)
(-6.28983165484123e-14 0 0)
(-8.212988010320118e-14 0 0)
(-1.081651245042559e-13 0 0)
(-2.705295714517497e-14 0 0)
(-1.293854699012776e-13 0 0)
(-9.244318540614616e-14 0 0)
(-9.245798213418813e-14 0 0)
(-8.601862215543169e-14 0 0)
(-8.088083331071665e-14 0 0)
(-1.075368254306776e-13 0 0)
(-7.471693957018092e-14 0 0)
(-8.096142517779393e-14 0 0)
(-1.084401268044164e-13 0 0)
(-1.084144516087192e-13 0 0)
(-7.959512240565311e-14 0 0)
(-1.009561702816286e-13 0 0)
(-9.6082051219903e-14 0 0)
(-8.796250023141509e-14 0 0)
(-1.025180672125054e-13 0 0)
(-5.076908046473121e-14 0 0)
(-1.539590564552799e-13 0 0)
(-9.061885232364992e-14 0 0)
(-1.021550924571458e-13 0 0)
(-9.522384128763279e-14 0 0)
(-1.130999803894034e-13 0 0)
(-1.087554552533754e-13 0 0)
(-1.028137986119871e-13 0 0)
(-1.076769703955514e-13 0 0)
(-6.020109755345643e-14 0 0)
(-1.759346450375991e-13 0 0)
(-8.734225823779863e-14 0 0)
(-1.23540007361728e-13 0 0)
(-1.294482462373662e-13 0 0)
(-1.049519162059323e-13 0 0)
(-1.322821477564514e-13 0 0)
(-7.384172123517934e-14 0 0)
(-1.621442739780703e-13 0 0)
(-9.397049125736703e-14 0 0)
(-1.405911295614037e-13 0 0)
(-1.352042530762601e-13 0 0)
(-1.22074834874966e-13 0 0)
(-1.391194254020585e-13 0 0)
(-1.281027580221098e-13 0 0)
(-1.476579229381405e-13 0 0)
(-9.626065399757703e-14 0 0)
(-1.768158898430823e-13 0 0)
(-1.547785698954574e-13 0 0)
(-1.196386369604706e-13 0 0)
(-1.559215723290784e-13 0 0)
(-1.47077844706746e-13 0 0)
(-1.448331084797623e-13 0 0)
(-1.322697357629379e-13 0 0)
(-1.61411636756671e-13 0 0)
(-1.214047530557817e-13 0 0)
(-1.784726615253066e-13 0 0)
(-1.385313236109284e-13 0 0)
(-1.607034321963961e-13 0 0)
(-1.536789877209818e-13 0 0)
(-1.314031588191498e-13 0 0)
(-1.990622480683558e-13 0 0)
(-9.787430494049796e-14 0 0)
(-2.001522191882497e-13 0 0)
(-1.441930485027864e-13 0 0)
(-1.802117646928263e-13 0 0)
(-9.154339055364305e-14 0 0)
(-2.19153657560463e-13 0 0)
(-1.648551932030732e-13 0 0)
(-1.376205209012287e-13 0 0)
(-1.704707367654614e-13 0 0)
(-1.585341108046464e-13 0 0)
(-1.776404699789403e-13 0 0)
(-1.194636883620986e-13 0 0)
(-1.919266841583333e-13 0 0)
(-1.765823291299497e-13 0 0)
(-1.644086260462684e-13 0 0)
(-1.709639057810564e-13 0 0)
(-1.551821891111697e-13 0 0)
(-1.767700537354328e-13 0 0)
(-1.549866552698491e-13 0 0)
(-1.87113312331712e-13 0 0)
(-1.180154558422146e-13 0 0)
(-2.124988252708155e-13 0 0)
(-1.773307411227613e-13 0 0)
(-1.452594376471003e-13 0 0)
(-1.792707443471567e-13 0 0)
(-1.695436205620401e-13 0 0)
(-1.710230487612223e-13 0 0)
(-1.665715113730916e-13 0 0)
(-1.636877682583927e-13 0 0)
(-1.322611648392353e-13 0 0)
(-2.205999799571272e-13 0 0)
(-1.450206207929722e-13 0 0)
(-1.893145679821265e-13 0 0)
(-1.609238463999593e-13 0 0)
(-1.717713316261553e-13 0 0)
(-1.824888470661221e-13 0 0)
(-1.482487112768844e-13 0 0)
(-2.162054237802004e-13 0 0)
(-1.501503860779457e-13 0 0)
(-2.003327358908365e-13 0 0)
(-1.909784891684393e-13 0 0)
(-1.768945467083835e-13 0 0)
(-2.026938372817278e-13 0 0)
(-1.722173681790973e-13 0 0)
(-2.039241610803978e-13 0 0)
(-1.481616896933099e-13 0 0)
(-2.377739926449179e-13 0 0)
(-1.748229712128552e-13 0 0)
(-2.141871961399805e-13 0 0)
(-1.934708211487227e-13 0 0)
(-1.919603431581793e-13 0 0)
(-2.166770769814586e-13 0 0)
(-1.885899728506072e-13 0 0)
(-2.355017042446345e-13 0 0)
(-1.540158626961184e-13 0 0)
(-2.437784522710438e-13 0 0)
(-2.086954087412622e-13 0 0)
(-2.293383850398553e-13 0 0)
(-2.141178612210542e-13 0 0)
(-1.990001065854065e-13 0 0)
(-2.328686094679659e-13 0 0)
(-1.960002479209698e-13 0 0)
(-2.380091576129653e-13 0 0)
(-2.469891911620107e-13 0 0)
(-2.243600132878563e-13 0 0)
(-2.263664632645833e-13 0 0)
)
;

boundaryField
{
    inlet
    {
        type            calculated;
        value           uniform (-4.037066012288669e-05 0 0);
    }
    outlet
    {
        type            calculated;
        value           uniform (-2.263664632645833e-13 0 0);
    }
    frontAndBack
    {
        type            empty;
    }
}


// ************************************************************************* //
