/*--------------------------------*- C++ -*----------------------------------*\
| =========                 |                                                 |
| \\      /  F ield         | OpenFOAM: The Open Source CFD Toolbox           |
|  \\    /   O peration     | Version:  v2012                                 |
|   \\  /    A nd           | Website:  www.openfoam.com                      |
|    \\/     M anipulation  |                                                 |
\*---------------------------------------------------------------------------*/
FoamFile
{
    version     2.0;
    format      ascii;
    class       volScalarField;
    location    "0.014";
    object      p;
}
// * * * * * * * * * * * * * * * * * * * * * * * * * * * * * * * * * * * * * //

dimensions      [1 -1 -2 0 0 0 0];


internalField   nonuniform List<scalar> 
1000
(
101310.9526987945
101313.6140069489
101306.8665495843
101301.5545824758
101295.7051554907
101290.4647640433
101285.9596139503
101282.1001423717
101278.7854590135
101276.5512938237
101275.8753271697
101275.8767873132
101276.2671489912
101277.3138168936
101279.3192061322
101282.3501438133
101286.2944612423
101290.9737376916
101296.2350103655
101301.9697091521
101308.0912083822
101314.5102988273
101321.1242917505
101327.8171493041
101334.4639234986
101340.9380420396
101347.1250846566
101352.9531383213
101358.4158887575
101363.5256094626
101368.1282622502
101371.5660518183
101373.1041526077
101373.3437783922
101373.3061968386
101373.0088637287
101372.2295971653
101370.7255409079
101368.2984786413
101364.8623327831
101360.467110699
101355.272282955
101349.4831775767
101343.2880895706
101336.8286523533
101330.2073092292
101323.5119212989
101316.83421788
101310.2713131119
101303.9069687447
101297.7837894792
101291.9136995675
101286.3597854881
101281.4944378424
101278.2304938637
101276.9502604111
101276.6848135056
101276.6555282796
101276.9313604224
101277.6308218706
101278.9598972283
101281.1125032867
101284.2207537423
101288.3177575439
101293.3309034227
101299.0999761418
101305.4166278573
101312.0705436028
101318.8829212803
101325.718403855
101332.4810771038
101339.1071437657
101345.5657368035
101351.854742078
101357.9515079129
101363.7038496533
101368.6483138108
101371.938052414
101373.2439648646
101373.4953759053
101373.5112510432
101373.2590847266
101372.6278587928
101371.4535047716
101369.5665722185
101366.8227494315
101363.1346211858
101358.496533952
101352.9948537176
101346.7953037422
101340.1101877982
101333.1578345571
101326.1269363761
101319.154148545
101312.3182112109
101305.6459090195
101299.1340669589
101292.8164785032
101286.8894372646
101281.8927946865
101278.687585414
101277.4622797179
101277.2103478098
101277.1720185933
101277.4068976084
101277.9958324365
101279.0890321509
101280.837343034
101283.3750232933
101286.7957421854
101291.1313637448
101296.3367721981
101302.288932362
101308.8039782025
101315.6689667121
101322.6802264778
101329.6771720395
101336.5596260562
101343.2863932975
101349.8540511194
101356.2294482612
101362.2285109423
101367.3668217528
101370.8122505244
101372.2060405722
101372.504753714
101372.5779734152
101372.3987284313
101371.9104591756
101370.965088753
101369.4220313933
101367.1512772468
101364.0487341713
101360.0533950736
101355.1656644795
101349.4584920366
101343.0742009706
101336.2050664333
101329.0604243735
101321.8289962576
101314.6511007133
101307.6093286819
101300.7418234073
101294.1081561626
101287.9284343241
101282.748301927
101279.4037345463
101278.1091951408
101277.8331891224
101277.7658162388
101277.9476881022
101278.4297169863
101279.3467745957
101280.8272486766
101282.9917329285
101285.9386595578
101289.729832579
101294.3757334346
101299.8253810248
101305.9655736888
101312.6323410349
101319.6350738761
101326.7889903357
101333.9437390418
101340.9978469966
101347.895573393
101354.5740161085
101360.8336825178
101366.2001682396
101369.8870068683
101371.4561267122
101371.8101553985
101371.9237134768
101371.8074487058
101371.4311432813
101370.6612676375
101369.3715384495
101367.4434728154
101364.7737155729
101361.2848277466
101356.9398237762
101351.7549283654
101345.8057251784
101339.2235698505
101332.1799603963
101324.8599726453
101317.4343944216
101310.0408303841
101302.7793176324
101295.7583288591
101289.2337546149
101283.771261842
101280.1994387255
101278.7765406457
101278.4673323445
101278.3696728402
101278.500365564
101278.8875719106
101279.6560734042
101280.9220179064
101282.7957152739
101285.3729393051
101288.7251205234
101292.8884102914
101297.8538833501
101303.5616381994
101309.9017786096
101316.7251719652
101323.864328152
101331.1573498152
101338.4654925042
101345.6827614124
101352.7063139056
101359.3107434995
101365.0041628366
101369.0110318217
101370.8204763435
101371.2464852814
101371.3819180363
101371.3214070942
101371.0377883363
101370.4133161989
101369.3302626637
101367.6784584445
101365.3579647376
101362.2855747262
101358.4060292982
101353.70283567
101348.2059066206
101341.9943605412
101335.1917904498
101327.9518294632
101320.4384412424
101312.8097583081
101305.2081408325
101297.7875283814
101290.8449924239
101284.9870368741
101281.067822023
101279.428105328
101279.0644868687
101278.9490945548
101279.0352343553
101279.3438994875
101279.9879912958
101281.0747303455
101282.706690748
101284.9770357296
101287.9616972974
101291.7104124322
101296.2388296456
101301.5224186545
101307.4936267812
101314.0449404576
101321.0402196928
101328.331428648
101335.7728661962
101343.2313927671
101350.5725950718
101357.551383404
101363.6511976358
101368.0793282265
101370.2333740772
101370.7741008251
101370.9187491932
101370.907196902
101370.6986054877
101370.1947763094
101369.2856550629
101367.8675209433
101365.8426888145
101363.1247914319
101359.6484475251
101355.3777322388
101350.3125330752
101344.493176175
101338.0012474434
101330.9532471822
101323.4887118709
101315.7602100187
101307.9264367394
101300.1669070365
101292.7973349882
101286.4593593083
101282.0692714008
101280.1009786921
101279.6466280462
101279.5200016267
101279.5642382999
101279.8057983908
101280.3430048543
101281.2756679087
101282.7006097328
101284.7085957674
101287.3774361075
101290.7644961701
101294.9007877988
101299.7857530184
101305.3831236133
101311.6201402678
101318.3928182368
101325.5766049946
101333.0356148588
101340.628667006
101348.2057823999
101355.5243095084
101362.0646997681
101367.0040076901
101369.631113502
101370.3666769869
101370.5146000972
101370.5469220995
101370.3979371668
101369.9959824959
101369.2352156381
101368.0176945888
101366.2474993649
101363.8365924438
101360.7137968604
101356.8310726206
101352.1680555
101346.7368311619
101340.5853552941
101333.7959801598
101326.4790654883
101318.7681818193
101310.8191260517
101302.8190587752
101295.0779248588
101288.238058463
101283.2794821773
101280.8447404052
101280.2225796958
101280.0923193386
101280.0977120366
101280.2809079542
101280.7235465991
101281.5195667638
101282.7615534923
101284.5386998728
101286.929728772
101289.996352859
101293.7793770426
101298.2947979528
101303.5292910662
101309.4373905309
101315.9431874229
101322.9468485092
101330.3303244958
101337.9588469204
101345.6796573898
101353.2670231014
101360.2308386655
101365.725186256
101368.9355273143
101369.9756051974
101370.1442117196
101370.2085871406
101370.1093990368
101369.7963577498
101369.1660525058
101368.1250057385
101366.5797196346
101364.441076781
101361.633690508
101358.1014350612
101353.8103301319
101348.7522804289
101342.9493111803
101336.4551579667
101329.3526207096
101321.7520529035
101313.7955201834
101305.6654715502
101297.6472944118
101290.3367477399
101284.7451294167
101281.7033837207
101280.7961511513
101280.6551848892
101280.6256517496
101280.7612247869
101281.1224271217
101281.7994232471
101282.879928524
101284.451673159
101286.5945961697
101289.3738660664
101292.8369717512
101297.011346793
101301.9004256527
101307.4799340194
101313.6971768043
101320.4746728108
101327.7141569246
101335.2949476264
101343.0688949723
101350.8296956657
101358.1507113707
101364.2060793494
101368.0827935537
101369.5783803466
101369.8239667746
101369.8993964671
101369.8419312761
101369.6021475586
101369.0832669128
101368.197429659
101366.8539229024
101364.9615390066
101362.4401906723
101359.2276244767
101355.280627027
101350.5767561898
101345.1185212725
101338.9369415599
101332.0913549791
101324.6692748117
101316.7932176159
101308.6315125382
101300.4375393871
101292.7293851162
101286.4934928159
101282.7414920434
101281.4169672833
101281.2120747768
101281.1628126302
101281.2571617259
101281.5452699642
101282.1149908732
101283.049060324
101284.4340164188
101286.3516669281
101288.8701870871
101292.0414677129
101295.9006265264
101300.4633157752
101305.7216035798
101311.6415143007
101318.1647168915
101325.2116176037
101332.6779260978
101340.4264286337
101348.2718559953
101355.8650451817
101362.4510843464
101367.0248321932
101369.1134727389
101369.5374078754
101369.6101984527
101369.5851631739
101369.4082272272
101368.9873361278
101368.2391407156
101367.0761075424
101365.4064296559
101363.1464510056
101360.2286412402
101356.6023770594
101352.2344854066
101347.1127451541
101341.2500984043
101334.6862376366
101327.4881772286
101319.7576537735
101311.6445381108
101303.3732794329
101295.374044973
101288.5398489859
101284.015769308
101282.1196058503
101281.7626788089
101281.704718374
101281.7655139028
101281.9916905555
101282.467615191
101283.2706549329
101284.4852500933
101286.195311019
101288.4725812598
101291.3730513438
101294.937757609
101299.1913946864
101304.1384132786
101309.7598390075
101316.013342617
101322.8352732724
101330.137876495
101337.800370606
101345.6560869658
101353.4207772146
101360.4568984106
101365.7253772015
101368.5159941249
101369.2693730381
101369.3368982486
101369.3403444716
101369.2132587613
101368.8752451672
101368.2473950173
101367.246777142
101365.781884976
101363.7646202484
101361.1213705222
101357.7953268354
101353.7457608233
101348.9496836355
101343.405835595
101337.1377974137
101330.1953004381
101322.6605159942
101314.6623862887
101306.3973587212
101298.2136397171
101290.8655685542
101285.5561042935
101282.9631689509
101282.3172701872
101282.2525660155
101282.2856041548
101282.4609706563
101282.8553832808
101283.5424757046
101284.6033793024
101286.1228732902
101288.176223492
101290.8235067819
101294.1106955398
101298.0696361636
101302.714800867
101308.03963078
101314.0151168169
101320.5911268482
101327.6954205792
101335.2238122676
101343.025817334
101350.8674152052
101358.249788975
101364.1868327477
101367.7405654447
101368.9736873786
101369.1005104019
101369.1135300155
101369.0214131377
101368.7522929975
101368.2274648282
101367.3706214725
101366.0911255746
101364.2976773126
101361.9115144805
101358.8700416539
101355.1254973984
101350.6457429397
101345.4179936971
101339.4526292013
101332.7850187861
101325.4796460844
101317.6443936606
101309.4509726933
101301.1852650099
101293.4502985609
101287.3912317969
101284.0023622897
101282.9165220971
101282.8037021375
101282.8177358932
101282.9511216872
101283.2776709814
101283.8641901699
101284.7868244533
101286.1307186986
101287.9752007959
101290.3847052504
101293.4093021267
101297.0863983566
101301.4386872858
101306.4701565403
101312.1633991629
101318.4801401189
101325.3613830781
101332.718310508
101340.4186981053
101348.2662826728
101355.8793619523
101362.4018477785
101366.7329071089
101368.5894202337
101368.9050384795
101368.9005993349
101368.8359181105
101368.6225583936
101368.1860507147
101367.4544382261
101366.3412530019
101364.7541960296
101362.6095144414
101359.8381126339
101356.3854594203
101352.2119667818
101347.2956451632
101341.6357549109
101335.25521732
101328.2034540777
101320.5690554583
101312.4995922463
101304.2325087221
101296.2383056023
101289.515493914
101285.2759220088
101283.6084159419
101283.3414404802
101283.3513200025
101283.4501006502
101283.718689577
101284.2180870239
101285.0188351331
101286.2037422747
101287.8548252428
101290.0409376184
101292.816595611
101296.2243307088
101300.2936345335
101305.0372481265
101310.4480481209
101316.4983210542
101323.1400099519
101330.2990268314
101337.8618898334
101345.6582280664
101353.3875807017
101360.3748681354
101365.4849022889
101368.0729569383
101368.7037013186
101368.7161760485
101368.6678269948
101368.4921917229
101368.1276438416
101367.5023785562
101366.5365940519
101365.1379544304
101363.2181629752
101360.7026527867
101357.531039116
101353.6565555159
101349.0484125039
101343.6956145215
101337.6100770969
101330.8289702892
101323.4230778831
101315.5162117039
101307.3117601424
101299.1820258424
101291.9270147483
101286.8236247841
101284.4491053483
101283.8932769384
101283.8836965585
101283.9550183862
101284.1759272223
101284.6022171797
101285.2970909939
101286.3391337052
101287.812231588
101289.7897652953
101292.3304837806
101295.4810278855
101299.2763802802
101303.7369419822
101308.8650106961
101314.6427555954
101321.032432856
101327.973593614
101335.3690426138
101343.0677181148
101350.8283835048
101358.1471664571
101363.9781124769
101367.3437986293
101368.4636076176
101368.5725168122
101368.5146700018
101368.3706638581
101368.0615410485
101367.5237611618
101366.6839717643
101365.4525313093
101363.7395370955
101361.4656894402
101358.5639690261
101354.9799839395
101350.6749318662
101345.6290601946
101339.8444470843
101333.34700509
101326.1916616557
101318.4811193534
101310.3909167988
101302.2166579829
101294.5761899337
101288.66782111
101285.4881032386
101284.4961776545
101284.4095526776
101284.4739641476
101284.6470647097
101285.0110460156
101285.6157949974
101286.5324827406
101287.8446884909
101289.6294629314
101291.9494313831
101294.8550524923
101298.3862424729
101302.5700040026
101307.4167440934
101312.9177889585
101319.0450530042
101325.7494863097
101332.949843809
101340.5165413837
101348.2498591721
101355.7625068887
101362.1962666082
101366.3861701182
101368.153694183
101368.4356129559
101368.3896950582
101368.2691917157
101368.0032393726
101367.5360547725
101366.8019889389
101365.7181999043
101364.1930987237
101362.1427424015
101359.4952668729
101356.1905575331
101352.1823649225
101347.4420832512
101341.9619400796
101335.7572100003
101328.8697053385
101321.3821821918
101313.4430569843
101305.2987635103
101297.4290262852
101290.8344892271
101286.7601360224
101285.190735284
101284.9359945233
101284.9865563814
101285.1249798136
101285.4377945269
101285.9669359588
101286.7753072369
101287.9424035707
101289.5480432295
101291.6598481094
101294.332944149
101297.6116749974
101301.5280257998
101306.0986903209
101311.3228109994
101317.1808554473
101323.6340017146
101330.6176651679
101338.0231125768
101345.6753924273
101353.2705393353
101360.1591577194
101365.1832939964
101367.6702752017
101368.294348198
101368.3053278324
101368.192906177
101367.9591686864
101367.5459699894
101366.8965635025
101365.9370314205
101364.5783758814
101362.7342860421
101360.3279478347
101357.2921492247
101353.5722574247
101349.1315446926
101343.9544270976
101338.0478377071
101331.4429639391
101324.2037142009
101316.4515438381
101308.3964559708
101300.4132715127
101293.2852877051
101288.3012959193
101286.0378461643
101285.4889218717
101285.4859280885
101285.602832995
101285.8689853556
101286.3361999517
101287.0535426064
101288.0934423215
101289.5358444875
101291.4524785949
101293.9037710051
101296.9396234069
101300.5976317816
101304.9001259796
101309.8521952003
101315.4407788861
101321.6349752605
101328.3830081947
101335.5958624489
101343.1253227838
101350.729687408
101357.9158621833
101363.6756312786
101366.9707651342
101368.1243914727
101368.234571519
101368.1391476626
101367.9398933384
101367.5664497439
101366.9790676039
101366.1183995368
101364.9033097158
101363.2464499905
101361.0658483217
101358.287480252
101354.8485476376
101350.7032822253
101345.8275076964
101340.2205917545
101333.9058197691
101326.9334789907
101319.4007539557
101311.484120389
101303.4822755168
101295.9978197123
101290.1895175462
101287.0822545804
101286.088990443
101285.9740051135
101286.0723714897
101286.2912933857
101286.7109406974
101287.3596008836
101288.2972699731
101289.5979711693
101291.3344503548
101293.5726649304
101296.371117205
101299.7765263
101303.8184489679
101308.5070940207
101313.8335169663
101319.7706672695
101326.2738123503
101333.2711447042
101340.6414712632
101348.1846894098
101355.5223389908
101361.8600309935
101366.0448735354
101367.8053984048
101368.1649238055
101368.124837355
101367.9529843378
101367.6168062051
101367.076728029
101366.2879186187
101365.1836141275
101363.6849793718
101361.711456377
101359.1828373993
101356.023823997
101352.1741321742
101347.5977785618
101342.2863146381
101336.2580325003
101329.5574059668
101322.2650346843
101314.5254118916
101306.5833219353
101298.9021703451
101292.4258104611
101288.3760070568
101286.8193392965
101286.5089466912
101286.5246853867
101286.704725147
101287.073594114
101287.6676355086
101288.5303587713
101289.7226058021
101291.308597897
101293.3516171325
101295.915786958
101299.0615547801
101302.8346905989
101307.2575568317
101312.3272864863
101318.0180603545
101324.284903169
101331.0625595973
101338.2472798491
101345.6732066584
101353.0570553263
101359.7918432958
101364.7948766368
101367.3048047926
101368.0353854143
101368.1137044166
101367.9967356949
101367.7198267833
101367.2224072263
101366.4805643628
101365.4479061312
101364.063484329
101362.2578477899
101359.9544486734
101357.0715219646
101353.5308220854
101349.2716408701
101344.2642624209
101338.5172813937
101332.0756046811
101325.0166382838
101317.4686908385
101309.6405513445
101301.8842260942
101294.9363935211
101290.009542244
101287.722941274
101287.1143899513
101287.0196433476
101287.1190810622
101287.4062801334
101287.9344044386
101288.738556733
101289.8614478154
101291.3474517255
101293.2420761062
101295.599237752
101298.4845197474
101301.9654878812
101306.0935467789
101310.8884416192
101316.3330439226
101322.3786703581
101328.9551138228
101335.964594811
101343.2585121849
101350.6102166905
101357.5696809415
101363.2128902862
101366.5769901032
101367.7903400316
101368.0022075782
101368.0117827081
101367.8385073959
101367.4378784334
101366.7614146516
101365.7716060754
101364.4345223371
101362.7171173722
101360.5749903011
101357.9398700453
101354.7210570764
101350.8231808008
101346.1718496617
101340.737173198
101334.5503926191
101327.6999692545
101320.3233384439
101312.6199652626
101304.8708543886
101297.6246921791
101291.9672718539
101288.8248689867
101287.7931254903
101287.6336966424
101287.6351804023
101287.8059367089
101288.1981968944
101288.8731543995
101289.8974459381
101291.3233047886
101293.1744350088
101295.4542942261
101298.169626826
101301.353319849
101305.0802178743
101309.4637831765
101314.6044556396
101320.4996906548
101326.9792479332
101333.8774084103
101340.8143798094
101348.7873884053
)
;

boundaryField
{
    inlet
    {
        type            uniformFixedValue;
        uniformValue    sine;
        uniformValueCoeffs
        {
            frequency       constant 3000;
            scale           constant 50;
            level           constant 101325;
        }
        value           uniform 101323.6421297957;
    }
    outlet
    {
        type            pressureOutletNSCBC;
        pInf            101325;
        gamma           1.4;
        etaAc           1;
        fieldInf        1;
        lInf            2.25;
        value           uniform 101352.4994459679;
    }
    frontAndBack
    {
        type            empty;
    }
}


// ************************************************************************* //
