/*--------------------------------*- C++ -*----------------------------------*\
| =========                 |                                                 |
| \\      /  F ield         | OpenFOAM: The Open Source CFD Toolbox           |
|  \\    /   O peration     | Version:  v2012                                 |
|   \\  /    A nd           | Website:  www.openfoam.com                      |
|    \\/     M anipulation  |                                                 |
\*---------------------------------------------------------------------------*/
FoamFile
{
    version     2.0;
    format      ascii;
    class       volScalarField;
    location    "0.014";
    object      pMean;
}
// * * * * * * * * * * * * * * * * * * * * * * * * * * * * * * * * * * * * * //

dimensions      [1 -1 -2 0 0 0 0];


internalField   nonuniform List<scalar> 
1000
(
101325.0413868106
101325.0027274026
101325.012988621
101325.0227398657
101325.0360037795
101325.0520465959
101325.0691098381
101325.0904409344
101325.113032194
101325.1377512369
101325.1631417685
101325.1883535353
101325.2135314625
101325.238276156
101325.262369252
101325.2852102673
101325.3063593666
101325.3253495041
101325.3418201824
101325.3555404969
101325.3661871609
101325.3736402039
101325.3776769738
101325.3782855005
101325.3753821078
101325.3690942917
101325.3594921508
101325.3467874725
101325.331152527
101325.3128472598
101325.2920135206
101325.269067222
101325.2447833732
101325.2201016417
101325.1953780933
101325.1707646319
101325.1463780959
101325.1225119236
101325.0995641819
101325.0780413411
101325.0584271839
101325.0412015019
101325.0267865517
101325.0154650238
101325.0074045519
101325.0027523287
101325.0015753688
101325.0038927319
101325.0095885457
101325.0186478827
101325.0308541262
101325.0460524795
101325.0641135186
101325.0848121603
101325.1075840691
101325.1314374671
101325.1555852021
101325.1797281636
101325.2037445924
101325.2275582649
101325.2509106359
101325.2734966719
101325.2948599996
101325.314637579
101325.3321479965
101325.3471146411
101325.3591189417
101325.3679187475
101325.3733744984
101325.3754098821
101325.3740124578
101325.3692221025
101325.3611730231
101325.3499492767
101325.335596674
101325.3182857011
101325.2982674984
101325.2761293654
101325.2528351312
101325.2292643074
101325.2056145945
101325.1821202238
101325.1587915403
101325.1358839362
101325.113590851
101325.0923384999
101325.0725837172
101325.0547560238
101325.039317693
101325.0267655897
101325.0173510485
101325.0112951354
101325.0087561075
101325.0097329794
101325.0141204262
101325.0219148392
101325.0330139034
101325.0473261659
101325.064645724
101325.0848223375
101325.1070545017
101325.1303709089
101325.1539626644
101325.177552334
101325.2010089413
101325.2243049606
101325.2472188804
101325.2695036006
101325.2908204088
101325.3108285583
101325.3289892908
101325.3448815557
101325.3580882099
101325.3682590024
101325.3750833537
101325.3785164652
101325.3783621344
101325.3747479564
101325.3676566879
101325.3572965223
101325.3436681047
101325.3268880252
101325.3073154724
101325.2855079374
101325.2624772452
101325.2391464519
101325.2157553976
101325.1924906169
101325.1693832844
101325.14664428
101325.1244123701
101325.1030601
101325.0828895455
101325.0644393939
101325.047969825
101325.0341255049
101325.023196338
101325.0155100008
101325.0113223227
101325.0107266504
101325.0137221262
101325.0202672991
101325.0303304423
101325.0438100207
101325.0604509456
101325.0800642317
101325.1018400827
101325.1247861363
101325.147984534
101325.1712417594
101325.1943449432
101325.2173158822
101325.2399321258
101325.2620709988
101325.2833549682
101325.3035103502
101325.3221560091
101325.3387795608
101325.3529974938
101325.3644645597
101325.3727342299
101325.3776995292
101325.3790442668
101325.3768575094
101325.3710154877
101325.3617235299
101325.3489950242
101325.3330012688
101325.3140038799
101325.2927091119
101325.2700176032
101325.2469724654
101325.2238615923
101325.2008706992
101325.1780133925
101325.1554643848
101325.1333788515
101325.1120194877
101325.0916580555
101325.0727979011
101325.0556628486
101325.0408352853
101325.0286765523
101325.0195944922
101325.013808102
101325.0116670853
101325.0131509067
101325.0183908606
101325.027253394
101325.0397931978
101325.0557316814
101325.0747421246
101325.0961232348
101325.1187614841
101325.141698416
101325.1646547307
101325.1875581887
101325.2102912259
101325.2327044657
101325.2547243423
101325.2759920448
101325.2962983956
101325.3152480701
101325.332499448
101325.3475274494
101325.3600879232
101325.3696770915
101325.3760878222
101325.3789864798
101325.3782990893
101325.3739150764
101325.3658602122
101325.3542246378
101325.3391786204
101325.3208806965
101325.3001550259
101325.2778371025
101325.2550780001
101325.2322193538
101325.209492387
101325.18687329
101325.1645252458
101325.1425666195
101325.1212705284
101325.1008329482
101325.0816482297
101325.0640716443
101325.0484844753
101325.0353252647
101325.0250366654
101325.0178694772
101325.0142165421
101325.0141914098
101325.0180053264
101325.0255704713
101325.036989969
101325.0520614875
101325.0704110754
101325.091329892
101325.1136989539
101325.1364409444
101325.159171279
101325.1818989608
101325.2044753787
101325.2267440902
101325.248647512
101325.2699320718
101325.290352269
101325.3095324958
101325.3272890497
101325.3429916041
101325.3564652775
101325.3672009542
101325.3749504527
101325.3792961681
101325.3801448249
101325.3772481938
101325.3706323858
101325.3602269773
101325.3462588284
101325.3288766305
101325.3087753931
101325.2869045883
101325.2644221712
101325.2418332666
101325.2192669951
101325.1969230523
101325.1747774441
101325.1529418648
101325.1317319976
101325.1112607605
101325.0918871959
101325.0739475227
101325.0578040353
101325.0438205794
101325.032510476
101325.0241470145
101325.019095236
101325.0176216956
101325.0199825281
101325.0261916715
101325.0363381921
101325.0503581791
101325.0679524387
101325.088288299
101325.1103819556
101325.1329320775
101325.1555592969
101325.1780000815
101325.2005417639
101325.2227045524
101325.2445384571
101325.2658061782
101325.286338819
101325.305759476
101325.3238509493
101325.3401801321
101325.3544131622
101325.3661441614
101325.37509999
101325.380792525
101325.3831106678
101325.381714817
101325.3766047115
101325.367567875
101325.3548264502
101325.3385229318
101325.3191891818
101325.297849845
101325.2756584049
101325.2533576657
101325.2309388309
101325.2088475416
101325.1868915138
101325.1652015486
101325.1440428852
101325.1235981585
101325.1041178361
101325.0858589522
101325.0693050707
101325.0546515344
101325.0424681858
101325.0330550773
101325.0267833082
101325.0239457452
101325.0248696946
101325.0296866317
101325.0385137826
101325.0513200892
101325.0679673257
101325.0876466319
101325.1093538595
101325.1317372685
101325.154257537
101325.176536874
101325.1989761129
101325.2210890033
101325.2428657348
101325.2641251228
101325.2847612706
101325.3043923355
101325.3227781442
101325.3396247854
101325.3545265413
101325.3671257466
101325.3771132997
101325.3841315346
101325.3877640081
101325.3878474172
101325.3842194733
101325.3766822996
101325.3652569311
101325.3501245959
101325.3317773617
101325.3110448271
101325.2892251508
101325.2671564362
101325.2450174093
101325.223021941
101325.2013244188
101325.179758481
101325.1586953283
101325.1382404947
101325.1187088603
101325.1002418859
101325.0833030244
101325.0681399709
101325.0552168817
101325.0448571172
101325.0375462458
101325.0334085553
101325.0329803614
101325.036393834
101325.0438831974
101325.0553602366
101325.0708728069
101325.0897751531
101325.1109750309
101325.1331764168
101325.1555519585
101325.1778347155
101325.1999367678
101325.2221367314
101325.2438805352
101325.2651751267
101325.2858596052
101325.3057105571
101325.3243990659
101325.3416207127
101325.3571515725
101325.3705087801
101325.3814351671
101325.3895961252
101325.3944896537
101325.3959913974
101325.393823266
101325.3877949253
101325.3778244856
101325.36396893
101325.3467299588
101325.3267756948
101325.3054043362
101325.2835676759
101325.2618054461
101325.2397818692
101325.2183673898
101325.1969957413
101325.1760209414
101325.1555710733
101325.1360080371
101325.1174145507
101325.1001399306
101325.084558321
101325.0710066657
101325.0598379945
101325.0515712439
101325.0462828934
101325.0446052989
101325.0466416994
101325.0527433477
101325.0629069478
101325.0771343889
101325.0950646113
101325.115680554
101325.1376122929
101325.1598585476
101325.1821154063
101325.20401998
101325.2261983806
101325.2479742479
101325.2692660021
101325.290028896
101325.310028856
101325.3290231779
101325.3466135213
101325.362651011
101325.3767015147
101325.3884891901
101325.3976019494
101325.4038265554
101325.4065759505
101325.4058242606
101325.4012722884
101325.392833
101325.3803526846
101325.3643029716
101325.3453147623
101325.3244940196
101325.3029517665
101325.281452377
101325.2596925858
101325.2383694255
101325.2172433523
101325.1963385213
101325.1759554617
101325.1563111109
101325.1376623875
101325.1201558458
101325.1041587811
101325.0900991896
101325.0782550063
101325.0690442563
101325.062897792
101325.0599204565
101325.0606732386
101325.0654079762
101325.0742140642
101325.0871356504
101325.1039017161
101325.1237963567
101325.145357761
101325.1674618058
101325.1896083503
101325.211579668
101325.2334010692
101325.2553148755
101325.2766397064
101325.297509387
101325.3176161649
101325.3369025043
101325.3548678336
101325.371323216
101325.3860029212
101325.3985675947
101325.4085825353
101325.4159629008
101325.4198813148
101325.4205205195
101325.4174176695
101325.410478822
101325.39952499
101325.3847398707
101325.3668095586
101325.3466983851
101325.3255430529
101325.304253528
101325.2829710972
101325.261457331
101325.2406627439
101325.2199394576
101325.1996206343
101325.1799426209
101325.1611895005
101325.1435558024
101325.1272050948
101325.1126916057
101325.1002486914
101325.0902551066
101325.0832057411
101325.0790936965
101325.0786860181
101325.0820564762
101325.0894964438
101325.1010985043
101325.1166065247
101325.135577621
101325.1566943715
101325.1786338904
101325.2006138941
101325.2226924672
101325.2441877862
101325.2661966295
101325.2876071753
101325.3085145209
101325.3287751643
101325.3482355697
101325.3666215055
101325.3834688167
101325.3987185382
101325.4119737722
101325.4228762502
101325.4311475105
101325.4364243108
101325.4382852232
101325.4365559958
101325.4311008926
101325.4216667193
101325.4083236775
101325.3914770541
101325.3722831415
101325.3515594924
101325.3305028564
101325.3095956278
101325.2882855929
101325.267605435
101325.2471023107
101325.2268266979
101325.2071884255
101325.1882958439
101325.170583054
101325.1539633942
101325.1390431444
101325.1260374434
101325.1154080035
101325.1073727519
101325.1025666988
101325.1008132397
101325.1029332986
101325.1090364069
101325.1192626638
101325.1335398184
101325.1513724318
101325.1719545048
101325.1935261684
101325.2154505669
101325.2374570014
101325.2590830077
101325.2806824658
101325.3023016758
101325.3232921518
101325.3437174866
101325.3633472361
101325.382050213
101325.3994004198
101325.4150432595
101325.4290328128
101325.4407269402
101325.4498605672
101325.4563687485
101325.4592898231
101325.4589760236
101325.4549529727
101325.4470297646
101325.4352162947
101325.4195944873
101325.4013355078
101325.3812277502
101325.3605128143
101325.339802212
101325.3190803397
101325.298083373
101325.2779678552
101325.2578544618
101325.2382517591
101325.2193034673
101325.2013971012
101325.1847393129
101325.1692480612
101325.156014379
101325.1446633211
101325.1358394405
101325.1301566519
101325.1272595253
101325.1282824797
101325.1330162925
101325.1419070243
101325.1548561117
101325.1715921873
101325.191252283
101325.2127126381
101325.2342635735
101325.256208871
101325.2780322852
101325.2992260604
101325.3210217619
101325.3421309028
101325.3626332292
101325.3824755683
101325.4013692174
101325.4192624252
101325.4352298619
101325.4500153992
101325.4623214457
101325.4723744421
101325.4797367783
101325.4840868415
101325.4849488234
101325.4822821686
101325.4758524866
101325.4655212015
101325.4513722987
101325.4339694788
101325.4148494578
101325.3942865247
101325.37395527
101325.3535911733
101325.3327878251
101325.3127755094
101325.2928945746
101325.273303477
101325.2543876692
101325.2363051666
101325.2195107849
101325.2037730183
101325.1900611749
101325.1781940742
101325.1687216623
101325.1619710997
101325.1585292206
101325.1580967014
101325.1616218462
101325.1691938896
101325.1807837982
101325.1963720445
101325.2150166956
101325.2360523221
101325.257452228
101325.2791900374
101325.3009804549
101325.3224024103
101325.3437062007
101325.365098762
101325.3857227884
101325.405773759
101325.4249013736
101325.4430969395
101325.4597713092
101325.4747594214
101325.4880123622
101325.4988425585
101325.5070379571
101325.5127459896
101325.5145375658
101325.5133435786
101325.5083268685
101325.4995047472
101325.4868319414
101325.4706270372
101325.4521956899
101325.4323560188
101325.4120693633
101325.3921187739
101325.3718951289
101325.3515012052
101325.3320506299
101325.3126077578
101325.2936851163
101325.2755416094
101325.2584541272
101325.2428022614
101325.2282051749
101325.2162501049
101325.2060222377
101325.1984786126
101325.1941763502
101325.1925902668
101325.1950470501
101325.2012196999
101325.2115336771
101325.2258094767
101325.2435576492
101325.2637613005
101325.2851703686
101325.3065970615
101325.3283965835
101325.3499360766
101325.3708655609
101325.3924950849
101325.4132589089
101325.4334087049
101325.4528151271
101325.4712201716
101325.4885536905
101325.5037828032
101325.5179581558
101325.5294914702
101325.5386127163
101325.5451393004
101325.548459692
101325.5483838894
101325.544704594
101325.5374038218
101325.5261790942
101325.5114054736
101325.493660191
101325.4746579036
101325.4547302882
101325.4348704163
101325.4151308748
101325.394936027
101325.3755091046
101325.3563246501
101325.3374097842
101325.319268083
101325.3019775456
101325.286148284
101325.2712752303
101325.258848347
101325.2481363397
101325.2397575865
101325.2344002107
101325.2323857847
101325.2332854438
101325.2382945269
101325.2473094567
101325.2602827517
101325.2769874037
101325.2963589781
101325.3174435689
101325.3388852419
101325.3602769355
101325.3820301265
101325.4031300168
101325.4241758782
101325.4453393847
101325.4656375328
101325.4852895893
101325.5039639572
101325.5216580646
101325.5376297661
101325.5521308342
101325.5645125088
101325.5744912181
101325.5818499351
101325.5867072396
101325.5874019255
101325.5853081699
101325.5793439931
101325.5696701335
101325.5562710727
101325.5396901854
101325.5211854551
101325.5018555098
101325.482183122
101325.4628214675
101325.4431809664
101325.4233318556
101325.4046413747
101325.3858154849
101325.3676401601
101325.3502787409
101325.3341006638
101325.3193683183
101325.3058744345
101325.2949542925
101325.2861477787
101325.2797308471
101325.2769130043
101325.2766772351
101325.2806191333
101325.2881944314
101325.299973432
101325.3154314545
101325.3341088078
101325.3545099712
101325.3758757865
101325.3972707439
101325.4187004286
101325.4402110263
101325.4607761915
101325.4822345583
101325.5027039746
101325.5224748228
101325.5414804663
101325.559389846
101325.5761542428
101325.590742774
101325.6041491803
101325.6151057693
101325.6230327942
101325.6288336632
101325.6313362229
101325.6301699289
101325.6255875339
101325.6174096305
101325.6054384966
101325.5901573002
101325.5723430796
101325.5534895457
101325.5343625214
101325.5149138295
101325.4960547992
101325.4763115842
101325.457397766
101325.4389795015
101325.4207685856
101325.4033971212
101325.3869753032
101325.3720688107
101325.3582038058
101325.346910505
101325.3374467876
101325.3302869609
101325.3262522726
101325.325829419
101325.3278963545
101325.3344856015
101325.3448802027
101325.3591897837
101325.376873194
101325.3968303047
101325.417734536
101325.4391893682
101325.4604232501
101325.4819685169
101325.5029809494
101325.5234702161
101325.5446158451
101325.5645692889
101325.5838398465
101325.6020872871
101325.6192510409
101325.6346012311
101325.6484355875
101325.6599949689
101325.6693779036
101325.6755597751
101325.6797089384
101325.6794071554
101325.6764856767
101325.6695169182
101325.6591153882
101325.645082872
101325.6284026228
101325.6098738887
101325.5911495991
101325.5722495727
101325.5532196949
101325.534648845
101325.514906045
101325.4971369265
101325.4790335805
101325.4615086111
101325.4450222309
101325.4297232911
101325.4159847544
101325.4035518518
101325.3938307268
101325.3864734979
101325.3810015948
101325.3795394758
101325.3812827583
101325.3862349433
101325.3953673079
101325.4084379489
101325.4250420495
101325.4444458376
101325.4649860843
101325.4862223033
101325.5076345558
101325.5286117659
101325.5503658432
101325.5705851998
101325.5913331833
101325.6118709019
101325.6312906812
101325.6499338967
101325.6674249332
101325.683553519
101325.6975353269
101325.7102553611
101325.7203683784
101325.7275993807
101325.7322976605
101325.7343640982
101325.7317503778
101325.7265971084
101325.7174694252
101325.7048881194
101325.6892327891
101325.6716556259
101325.6528714725
101325.634439625
101325.6158362259
101325.5972596807
101325.5789935416
101325.5595027849
101325.5423762141
101325.524931366
101325.5082489767
101325.4928301746
101325.4787155835
101325.4660892297
101325.4556651282
101325.4474491297
101325.4422058588
101325.4386713374
101325.4398621799
101325.4436387928
101325.4516795067
101325.4633487684
101325.4788632389
101325.4973544676
101325.5178491352
101325.5386064795
101325.5599385463
101325.5812650942
101325.6020684648
101325.6238682813
101325.6431214904
101325.664438174
101325.6842584778
101325.7028977839
101325.7209394836
101325.7374929946
101325.7523205217
101325.7651275774
101325.7762737417
101325.7849003621
101325.7900267855
101325.7929712579
101325.7928516202
101325.7881774236
101325.7808283649
101325.7695472703
101325.7551039552
101325.7382641867
101325.7203153195
101325.7016266794
101325.6834509111
101325.6652562051
101325.6469624054
101325.6294419544
101325.609909303
101325.5935507167
101325.5769242591
101325.5612260183
101325.5470261951
101325.5338699184
101325.5228561487
101325.5142731595
101325.5080482759
101325.504831619
101325.5035662257
101325.5072826581
101325.5131355913
101325.5243677121
101325.5383988887
101325.5559913882
101325.5758017373
101325.5967521749
101325.6177331
101325.6389563415
101325.6602205725
101325.6807989021
101325.7027362394
101325.7210237224
101325.7423683607
101325.7616591722
101325.7793392788
101325.7973191083
101325.8118728051
101325.8258928053
101325.8374519896
101325.8466267305
101325.8537889722
101325.8566599523
101325.8577970292
101325.8553736783
101325.8519551875
)
;

boundaryField
{
    inlet
    {
        type            calculated;
        value           uniform 101324.9999999997;
    }
    outlet
    {
        type            calculated;
        value           uniform 101325.8441305471;
    }
    frontAndBack
    {
        type            empty;
    }
}


// ************************************************************************* //
