/*--------------------------------*- C++ -*----------------------------------*\
| =========                 |                                                 |
| \\      /  F ield         | OpenFOAM: The Open Source CFD Toolbox           |
|  \\    /   O peration     | Version:  v2012                                 |
|   \\  /    A nd           | Website:  www.openfoam.com                      |
|    \\/     M anipulation  |                                                 |
\*---------------------------------------------------------------------------*/
FoamFile
{
    version     2.0;
    format      ascii;
    class       volScalarField;
    location    "0.014";
    object      rho;
}
// * * * * * * * * * * * * * * * * * * * * * * * * * * * * * * * * * * * * * //

dimensions      [1 -3 0 0 0 0 0];


internalField   nonuniform List<scalar> 
1000
(
1.176301686501993
1.176325742531861
1.176272274965787
1.176228711690496
1.176177852896342
1.176131614450944
1.176092501252304
1.176059493999541
1.176031171050323
1.176011703140226
1.1760052717593
1.176004381380443
1.176006683880807
1.176014879079491
1.176031305185483
1.176056352122365
1.176089079076067
1.176128010152566
1.176171862697017
1.176219709586506
1.176270799703804
1.176324361636996
1.176379516598416
1.176435279069631
1.176490594310279
1.176544402811262
1.176595758254388
1.176644076501188
1.176689316254348
1.176731581735543
1.176769602756701
1.176797950677246
1.176810561025336
1.176812464446567
1.176812076791196
1.176809531770425
1.176803055465829
1.17679060734141
1.176770522424877
1.176742083207663
1.176705698258916
1.176662681739234
1.176614729932409
1.176563400032642
1.176509863909597
1.176454970123595
1.176399448411774
1.176344062670945
1.1762896225007
1.176236826208814
1.176186029401305
1.176137332720715
1.176091261810312
1.176050907283585
1.176023839720174
1.176013227004638
1.176011031014125
1.176010795199425
1.176013092366815
1.176018901492497
1.176029928414171
1.176047782602575
1.176073559707832
1.176107534201992
1.176149104178057
1.176196941414824
1.176249318555207
1.176304491876339
1.176360978888065
1.176417657264233
1.176473731658571
1.176528672971306
1.176582225107822
1.176634370367627
1.176684920806529
1.17673261459912
1.176773609355583
1.176800884258487
1.176811711225562
1.176813795487574
1.176813926795168
1.176811835618831
1.176806601849609
1.176796865264448
1.176781220901032
1.176758472171786
1.176727894140798
1.176689439663287
1.176643824474961
1.176592422283321
1.176536993084018
1.176479346950438
1.176421048360086
1.176363230429494
1.176306546126772
1.17625121763802
1.176197218722423
1.176144829699113
1.176095678480069
1.176054242166791
1.17602766161959
1.176017500196641
1.176015410928957
1.176015093067539
1.176017040920913
1.176021924948055
1.176030990810466
1.176045489427335
1.176066534104268
1.176094901480186
1.176130855582351
1.176174022008297
1.176223380181738
1.176277405124889
1.176334330834788
1.176392468312372
1.176450485948384
1.176507553119363
1.176563328312708
1.176617783223879
1.176670643065724
1.176720381770681
1.176762983254101
1.176791548801355
1.176803104429366
1.176805580983875
1.176806188022317
1.176804701931537
1.176800653787687
1.176792815906978
1.176780022682953
1.17676119615325
1.176735473177995
1.176702347762757
1.176661823011192
1.176614503464839
1.176561568861577
1.176504613169172
1.176445371922296
1.176385409853255
1.176325890458468
1.176267498633567
1.176210550747068
1.176155540885593
1.176104294457449
1.176061336622485
1.176033600449965
1.176022864885232
1.176020575962002
1.176020017227856
1.176021525474146
1.176025522914059
1.176033128024671
1.176045405484179
1.176063355301623
1.17608779365191
1.176119232895783
1.176157759726695
1.176202951106045
1.176253868020257
1.176309150500416
1.176367217767486
1.176426537475757
1.176485862886584
1.176544352636601
1.176601544609979
1.176656917350908
1.176708816964016
1.176753310391477
1.176783877517116
1.176796886796912
1.176799821961586
1.176800763433847
1.176799799491026
1.176796679603616
1.176790296702506
1.176779603768002
1.176763618424487
1.176741483673977
1.17671255732868
1.176676532535653
1.176633543556515
1.176584216778548
1.176529641022863
1.176471238008709
1.176410542136088
1.176348969447329
1.176287660938266
1.176227446173327
1.176169224738173
1.176115118784393
1.17606981953494
1.176040198823148
1.17602839880531
1.176025834535618
1.176025024633217
1.176026108446129
1.176029319514208
1.176035692643866
1.17604619101464
1.176061729367106
1.176083101856014
1.176110900708248
1.176145425531061
1.176186602073851
1.176233933329717
1.176286507714755
1.176343088328302
1.176402286127375
1.176462758545754
1.176523355098184
1.176583196932737
1.176641431404156
1.176696189749128
1.176743393956656
1.176776614508912
1.176791616306153
1.176795148246734
1.17679627107752
1.176795769374531
1.176793417925041
1.17678824052738
1.176779261098324
1.176765566201615
1.176746327186036
1.176720854074439
1.176688688545634
1.17664969363439
1.176604117085086
1.176552614599023
1.176496210652534
1.176436178860351
1.17637387858666
1.176310620950902
1.176247586392245
1.176186051473027
1.176128479811055
1.176079901272376
1.176047399777345
1.17603380172378
1.176030786237591
1.176029829278391
1.176030543610433
1.176033103331773
1.17603844472983
1.176047456955256
1.176060990607398
1.176079818210459
1.176104569347846
1.176135656321297
1.176173208694999
1.176217022804054
1.176266538200305
1.176320863077316
1.176378868299863
1.176439326168429
1.176501028434801
1.176562871101485
1.176623739702114
1.176681602233405
1.176732176091447
1.17676888940322
1.176786748274478
1.176791231324859
1.176792430561908
1.176792334764711
1.176790605348284
1.176786428174885
1.176778890787021
1.176767133220816
1.176750345526323
1.176727811547549
1.176698989071014
1.176663580051987
1.176621583318948
1.176573332949525
1.176519505110138
1.17646106548426
1.176399170823062
1.176335086024058
1.176270126890782
1.17620578198863
1.176144669464959
1.17609211050056
1.176055704255769
1.176039381392132
1.176035613477004
1.176034563356807
1.176034930189453
1.176036933409632
1.176041388409805
1.176049122891303
1.176060939760687
1.176077591671297
1.176099723801543
1.176127811740201
1.176162112484065
1.176202621187488
1.176249036843808
1.176300755837294
1.176356915642581
1.176416483233961
1.176478331685148
1.176541290251907
1.176604115337696
1.176664795091247
1.176719022069201
1.176759973674545
1.17678175467311
1.176787853094115
1.176789079483878
1.176789347444137
1.176788112217588
1.176784779665435
1.176778472259273
1.176768377952675
1.176753701442482
1.176733712743502
1.1767078216152
1.176675629594588
1.176636967629039
1.176591935668977
1.176540931045758
1.176484636285956
1.176423966172454
1.176360028007484
1.176294113481736
1.176227774475078
1.176163581207295
1.176106860540783
1.17606574009942
1.176045549082881
1.176040389545505
1.176039309295348
1.176039354001562
1.17604087321202
1.176044543965062
1.176051145275253
1.176061444917317
1.176076182515896
1.176096010835004
1.176121441535484
1.176152812850105
1.176190257239582
1.176233663978289
1.176282655786611
1.176336602940881
1.176394677359461
1.176455899964666
1.176519153119622
1.176583170114686
1.176646079303515
1.176703817275644
1.176749370898394
1.176775987509339
1.176784610630891
1.176786008506935
1.176786542219574
1.176785719852666
1.176783124465427
1.176777898695103
1.176769267515335
1.176756455714558
1.176738724369375
1.176715448357132
1.176686162200292
1.176650583980456
1.176608646347603
1.176560531649769
1.176506685137192
1.176447793053662
1.176384770144602
1.176318794176367
1.176251377881013
1.176184887745397
1.176124264290404
1.17607789440236
1.176052669668729
1.176045146077185
1.176043977046961
1.176043732120063
1.176044856401022
1.176047851806606
1.17605346605825
1.17606242655144
1.176075460787521
1.176093231628943
1.176116279412793
1.176144997821719
1.176179614182021
1.176220156763956
1.176266424031236
1.176317978757162
1.176374178190817
1.176434207271767
1.176497065121178
1.17656152318145
1.176625870832965
1.176686570789364
1.176736776089285
1.176768917644653
1.176781317350796
1.176783353460763
1.176783978827659
1.176783502382284
1.176781514361837
1.176777212394921
1.176769868037611
1.176758729175511
1.176743039567946
1.176722135136884
1.176695499621444
1.176662774574789
1.176623773718557
1.176578517607824
1.176527263150747
1.176470502046224
1.176408959627056
1.176343651512622
1.176275973285353
1.17620802592683
1.17614410573642
1.176092393348557
1.176061278706096
1.176050294588858
1.176048595430868
1.176048186897302
1.176048969314937
1.176051358556388
1.176056083181584
1.176063829296413
1.17607531452321
1.176091217232521
1.176112102710342
1.176138401161437
1.176170403654782
1.176208239798234
1.176251843591462
1.176300933044105
1.176355024197659
1.17641345679608
1.17647536583945
1.176539613401167
1.176604663201644
1.176667620229708
1.176722225656393
1.176760146420539
1.176777463099244
1.176780977879999
1.176781581370007
1.176781373797956
1.176779906839053
1.176776417287346
1.176770214099447
1.17676057152803
1.176746728373975
1.176727990985753
1.176703799370142
1.176673733665803
1.176637518645379
1.176595052750986
1.176546443020342
1.176492018264295
1.176432333831827
1.176368233005557
1.176300958258416
1.176232370596201
1.176166037130152
1.176109363560444
1.176071846389222
1.176056121794697
1.176053161839882
1.176052681176468
1.176053185340364
1.176055060988402
1.176059007767192
1.176065667264337
1.176075739711212
1.176089920923835
1.176108805792361
1.176132858535404
1.176162419321454
1.176197692762432
1.176238715558131
1.176285330126658
1.176337185203424
1.176393752723636
1.176454304778912
1.176517839655645
1.176582975247846
1.17664735469045
1.176705692146716
1.176749373100473
1.176772509849413
1.176778756013318
1.176779315853029
1.176779344419946
1.176778290763206
1.176775488335334
1.176770282912293
1.176761986909309
1.176749841626546
1.176733116595278
1.17671120141236
1.176683624950085
1.176650049360098
1.176610283827937
1.176564317657166
1.176512346077903
1.176454781131849
1.176392303851669
1.176325983132654
1.176257447723043
1.17618958497991
1.176128650461653
1.17608462051141
1.1760631177699
1.176057761423535
1.176057224839234
1.1760574988168
1.17605895310226
1.176062223907733
1.17606792186322
1.176076719764598
1.176089320641069
1.176106348603562
1.176128301772059
1.17615556126483
1.176188391018781
1.176226910855063
1.176271066160799
1.176320616133914
1.176375144806968
1.17643405290151
1.176496476287031
1.176561167006701
1.176626184586564
1.176687393275073
1.176736617556675
1.176766081325131
1.176776304993518
1.176777356466238
1.176777464407919
1.17677670067485
1.176774469430911
1.176770118146649
1.176763014160736
1.176752405987287
1.176737536624986
1.176717752988958
1.176692535993499
1.176661489498146
1.176624346845258
1.176581001800981
1.176531540152659
1.176476254862872
1.176415680293794
1.176350710689638
1.176282769634708
1.176214227586709
1.17615008519948
1.176099839304571
1.176071736140144
1.176062731445879
1.176061795847795
1.176061912227104
1.176063018372911
1.176065726393371
1.17607059030316
1.176078241552821
1.176089386210382
1.176104682082485
1.176124663438723
1.17614974539344
1.176180238011887
1.176216329306685
1.176258052136836
1.176305261919947
1.176357641013507
1.176414699952354
1.17647570201878
1.176539550630816
1.176604618323043
1.176667740269951
1.176721818784281
1.176757727457748
1.17677311961931
1.176775736371738
1.176775699568362
1.176775163302835
1.176773394360685
1.176769775327812
1.176763709614823
1.176754480310088
1.176741322137743
1.176723540649155
1.176700562882262
1.176671936586697
1.176637333361457
1.176596570670921
1.176549642125285
1.17649673748381
1.176438266219134
1.176374962590744
1.17630804997333
1.176239497101015
1.176173205523351
1.176117455779557
1.176082298089878
1.176068469775914
1.176066255794232
1.176066337725278
1.176067156897445
1.17606938425899
1.176073525675717
1.176080166136355
1.176089992338268
1.176103684395169
1.176121813234693
1.176144830856015
1.176173089836497
1.176206834580616
1.176246170550673
1.176291038452305
1.176341208229257
1.176396281125787
1.176455642549218
1.176518351299767
1.176582994554716
1.176647081007762
1.176705013591436
1.176747380910976
1.176768838262484
1.176774067691994
1.176774171120972
1.176773770266281
1.176772314093472
1.17676929166787
1.17676410766407
1.176756100443818
1.176744504433816
1.17672858752476
1.176707731407438
1.176681435316969
1.176649311354228
1.176611104040846
1.17656672196958
1.17651626365884
1.176460037000142
1.176398628597027
1.176333064788708
1.176265031858873
1.176197616959499
1.176137454326226
1.176095133442051
1.176075442065685
1.17607083268359
1.176070753238538
1.176071344700667
1.17607317665844
1.176076711802199
1.176082474259002
1.1760911157074
1.176103331771488
1.176119730931118
1.176140800299355
1.176166926545955
1.176198399626595
1.17623538854018
1.176277912129923
1.176325822299052
1.17637880581309
1.176436361168575
1.176497682192632
1.176561516132016
1.176625862669518
1.17668654412627
1.176734888773874
1.176762793491342
1.176772077710284
1.176772980666596
1.176772501069675
1.176771307133198
1.176768744230527
1.17676428555673
1.176757322948802
1.176747113178723
1.176732910832437
1.1767140583756
1.176690000053195
1.176660284761591
1.176624590605893
1.176582753589904
1.176534790681651
1.176480916439635
1.176421585989621
1.176357650616989
1.176290565631084
1.176222782094439
1.176159423529524
1.176110427494443
1.176084058887054
1.176075833049649
1.176075114689025
1.176075648845272
1.176077084338111
1.176080102764469
1.176085117826276
1.176092719723292
1.176103601539468
1.176118402198477
1.176137640971123
1.176161736201265
1.176191018772173
1.176225712443205
1.176265903318448
1.176311519246366
1.176362327087327
1.176417919857428
1.176477623628398
1.176540363704739
1.17660448395261
1.176666773206045
1.176720116107964
1.176754854495113
1.176769508875993
1.176771846235787
1.176771465540206
1.176770466464775
1.176768261484248
1.176764388106663
1.176758302040742
1.176749316438647
1.176736671914651
1.176719672449449
1.176697722136048
1.176670322441926
1.176637089746296
1.176597786668082
1.176552348517172
1.176500901659616
1.176443792478959
1.176381706857409
1.176315875174832
1.176248340699079
1.176183081454145
1.176128395635466
1.176094608198808
1.176081593511917
1.17607948100174
1.176079900306369
1.176081048229984
1.176083642341001
1.176088030400102
1.176094734045093
1.176104412496601
1.176117727636671
1.17613524018187
1.176157407193604
1.176184596285279
1.176217072549587
1.176254974238758
1.176298294029525
1.176346869716936
1.176400379131964
1.176458286487401
1.17651968995721
1.176583138734449
1.17664611245085
1.176703226977454
1.176744882147753
1.176765501530062
1.176770675653674
1.176770766689355
1.176769834621613
1.176767896733836
1.176764470948893
1.176759086785572
1.176751131389502
1.176739866864529
1.176724577570504
1.176704626574523
1.176679456516464
1.176648614287767
1.176611795186234
1.176568869772365
1.176519895263588
1.176465129954521
1.176405103444007
1.176340822530029
1.176274028340907
1.176207828901336
1.176148719861311
1.176107389274986
1.176088619057659
1.176084066949389
1.176084042128027
1.176085011604191
1.176087218753361
1.176091093262835
1.176097042021391
1.176105665654638
1.176117627105147
1.176133521162182
1.176153848854173
1.176179023899442
1.176209357934008
1.176245035962481
1.176286099988703
1.176332441485607
1.176383803966337
1.17643975785079
1.176499564797618
1.176561995655454
1.176625046246197
1.176684628245162
1.176732382790906
1.176759702588811
1.176769267192315
1.176770180687254
1.176769389544809
1.176767737554591
1.17676464137544
1.176759771449197
1.176752635726479
1.176742561500351
1.176728824539897
1.176710745160952
1.17668770953802
1.176659196881557
1.176624827552231
1.176584400886969
1.176537911391607
1.176485551852153
1.176427738928092
1.176365278154238
1.176299632609621
1.176233279000512
1.176171214395559
1.176123048371088
1.17609728072556
1.176089043824107
1.17608809028065
1.176088906017221
1.176090721494924
1.176094201538585
1.176099580725548
1.176107356580229
1.176118142938795
1.176132543027115
1.176151103751965
1.176174310167011
1.176202549577244
1.176236066931072
1.176274946700171
1.17631911450113
1.176368345791033
1.176422269398852
1.176480289662251
1.176541401468109
1.176603945510319
1.176664783831137
1.176717330261335
1.176752026717092
1.176766623082537
1.176769603870857
1.176769271524342
1.176767846719039
1.176765059508473
1.176760581778146
1.176754041832427
1.17674488612526
1.176732461013438
1.176716098548325
1.176695133654681
1.176668941921381
1.176637023377436
1.176599079483874
1.176555039955386
1.176505056188012
1.176449496644385
1.176389029336133
1.176324852118824
1.176258994582893
1.176195299414393
1.176141593815571
1.176108010109214
1.176095101070794
1.176092527060147
1.176092657581864
1.176094150616705
1.176097209563809
1.176102135804894
1.176109290145837
1.176119177116843
1.176132329258108
1.176149271301115
1.176170534927797
1.176196621302394
1.176227909837586
1.176264585800979
1.176306625215632
1.176353813755961
1.176405778242292
1.176461977340798
1.176521550561979
1.176583122516508
1.176644344309594
1.176700183445905
1.1767416636856
1.176762473337164
1.176768530507948
1.176769179845514
1.17676821007671
1.176765914262605
1.176761790214087
1.176755639668072
1.176747077981112
1.176735599814447
1.176720629314602
1.176701531764947
1.176677629159123
1.176648272627153
1.176612958653688
1.176571440635982
1.176523789573986
1.176470377523952
1.176411846012193
1.176349258676105
1.176284346588705
1.176220028590256
1.176162413708676
1.176121557154723
1.176102595036195
1.176097548477395
1.176096762770029
1.176097587387937
1.176099969065879
1.176104348671569
1.176111017295837
1.176120329113706
1.176132652081039
1.176148363538838
1.17616791054152
1.176191836859117
1.176220702666454
1.176254934079699
1.176294694641361
1.176339842095913
1.176389972515365
1.176444503501576
1.176502624059645
1.17656310186135
1.176624057555871
1.176681759897109
1.176728548101044
1.176756439735058
1.1767664995237
1.176768256106233
1.176768335501192
1.176766898892639
1.176763577289553
1.176757968730751
1.176749762219182
1.176738676428816
1.1767244373607
1.176706676869472
1.17668482889662
1.176658141410439
1.176625823595183
1.176587258465273
1.176542197866661
1.176490900412526
1.176434099138539
1.176372933155299
1.176309055836792
1.176244796702517
1.176184705575885
1.176137787384742
1.176111724588893
1.176103164605101
1.176101839804556
1.176101849061736
1.176103263051136
1.176106521359182
1.176112135106503
1.176120657885492
1.176132516156158
1.176147892660488
1.176166811712993
1.176189355484173
1.176215843195647
1.176246902114534
1.176283375573503
1.176325889136278
1.176374150180601
1.176426610610112
1.176482652850751
1.176541145096567
1.176611502391078
)
;

boundaryField
{
    inlet
    {
        type            calculated;
        value           uniform 1.176395950917642;
    }
    outlet
    {
        type            calculated;
        value           uniform 1.176643915434465;
    }
    frontAndBack
    {
        type            empty;
    }
}


// ************************************************************************* //
