/*--------------------------------*- C++ -*----------------------------------*\
| =========                 |                                                 |
| \\      /  F ield         | OpenFOAM: The Open Source CFD Toolbox           |
|  \\    /   O peration     | Version:  v2012                                 |
|   \\  /    A nd           | Website:  www.openfoam.com                      |
|    \\/     M anipulation  |                                                 |
\*---------------------------------------------------------------------------*/
FoamFile
{
    version     2.0;
    format      ascii;
    class       volScalarField;
    location    "0.014";
    object      T;
}
// * * * * * * * * * * * * * * * * * * * * * * * * * * * * * * * * * * * * * //

dimensions      [0 0 0 1 0 0 0];


internalField   nonuniform List<scalar> 
1000
(
299.9864668790725
299.9882122095711
299.981868165518
299.9772484547576
299.9728974409659
299.9691712894132
299.965805003437
299.9627934060958
299.960200370627
299.9585488671284
299.9581872181222
299.9584186477283
299.958987529067
299.9599972178392
299.9617469714546
299.9643351879524
299.9676695196785
299.9715978760493
299.9759942899464
299.9807736019325
299.9858707656472
299.9912182786881
299.9967361329423
300.0023320443358
300.0079050370661
300.0133505815439
300.0185712975666
300.0235033163955
300.0281385509235
300.0324868273728
300.0364161318337
300.0393637086218
300.0407009959629
300.0409249339065
300.0409125383482
300.0406813829064
300.0400261362441
300.03874823759
300.0366854656472
300.0337658988132
300.0300332613592
300.0256243724644
300.0207143785475
300.0154635093967
300.0099921575039
300.0043871730213
299.9987225636579
299.9930751068206
299.9875258983306
299.982144908118
299.9769676538137
299.972003832699
299.9673062656823
299.9631896265111
299.9604266558952
299.9593418327775
299.9591157583035
299.9590891699921
299.9593201966401
299.9599101376558
299.9610339585905
299.9628554385886
299.965486332024
299.9689545811095
299.9731985220634
299.9780822939766
299.9834293203903
299.9890614227169
299.9948271698826
300.000611971062
300.0063346728083
300.0119413417623
300.0174059351549
300.0227267467843
300.0278846855188
300.0327510615542
300.0369338676515
300.0397168011324
300.0408215513509
300.0410342631312
300.0410477714493
300.0408345871604
300.0403007112948
300.0393073316155
300.037711095102
300.0353898971392
300.0322697449864
300.0283458000471
300.0236910639773
300.0184456793463
300.0127892145811
300.0069063616514
300.0009567645969
299.9950560589141
299.989270887243
299.9836239320805
299.9781125227399
299.9727652793047
299.9677483770321
299.9635188360363
299.9608056179123
299.9597683762078
299.9595551104494
299.9595226633131
299.9597214922662
299.9602200358811
299.9611454440266
299.9626253973523
299.964773522145
299.9676690696971
299.971338956483
299.975744925054
299.9807827612026
299.9862967743077
299.9921066877731
299.9980401024246
300.0039611115063
300.0097849500737
300.0154767758538
300.0210337117451
300.0264277285161
300.031503118604
300.0358501133568
300.0387648441326
300.0399439299517
300.040196629104
300.0402585717225
300.0401069422095
300.0396938922551
300.038894151198
300.0375887805963
300.0356677778425
300.0330430511879
300.0296629409307
300.0255277255629
300.0206990490964
300.0152972517271
300.0094849536085
300.0034392377055
299.9973197749775
299.9912453050591
299.985285734452
299.9794733638105
299.9738586363312
299.9686278900114
299.964243055005
299.9614118858305
299.9603160442957
299.9600824037503
299.9600253745413
299.9601793355272
299.9605873831648
299.961363683999
299.9626169115505
299.9644491316031
299.9669436371633
299.9701527006317
299.9740851364421
299.9786977240751
299.9838945774957
299.9895368517658
299.995463178196
300.0015171478985
300.0075715168713
300.0135404245987
300.0193767215216
300.0250272076831
300.0303231337055
300.0348632056136
300.0379821864117
300.0393096020622
300.0396090981733
300.0397051665921
300.0396068160682
300.0392884826432
300.0386372020806
300.037546137992
300.0359150441751
300.0336564602796
300.0307048361302
300.0270288292834
300.0226421006766
300.0176085248621
300.0120391674652
300.0060790744509
299.9998848053109
299.9936008577311
299.987343675468
299.9811979308105
299.9752554527818
299.9697328686532
299.9651090624225
299.9620855425508
299.9608810512499
299.9606193070187
299.9605366408707
299.9606472784396
299.9609750579207
299.9616256038959
299.9626972310506
299.964283304032
299.9664648719775
299.9693023648335
299.9728263356351
299.9770291698066
299.9818600980064
299.9872260369578
299.9930007067012
299.9990423111793
300.0052138125458
300.0113977911552
300.0175045615727
300.0234471234356
300.0290347998036
300.0338515054748
300.0372412500442
300.0387719797757
300.0391323703853
300.039246944614
300.0391957597562
300.038955835722
300.0384275604757
300.037511336842
300.0361139552115
300.0341508509871
300.0315516024583
300.0282694172695
300.0242902855964
300.0196394474499
300.014383769855
300.0086277549597
300.0025013378635
299.9961432177031
299.9896871858292
299.983253713064
299.9769730967482
299.9710968127422
299.9661383100387
299.9628207501414
299.9614327280109
299.9611249263899
299.9610272497887
299.9611001734152
299.961361466945
299.9619066982875
299.9628266266235
299.9642080711985
299.9661298760306
299.9686562882042
299.9718293686976
299.9756623114544
299.9801342918322
299.9851880664311
299.9907325734181
299.9966525352039
300.0028226257103
300.0091195178549
300.0154305385971
300.0216419608949
300.0275464437102
300.0327070203085
300.0364531745302
300.03827543405
300.0387328729884
300.0388552436706
300.0388454758278
300.0386690218627
300.0382428052336
300.0374737216608
300.0362740193916
300.0345610446183
300.0322617081055
300.0293206619847
300.0257074649471
300.0214219613314
300.0164982001494
300.0110051377589
300.0050412786618
299.998724634269
299.992184265419
299.9855544444977
299.9789870947083
299.9727494542157
299.9673846988931
299.9636685822723
299.962002427747
299.9616178218548
299.9615106356017
299.9615480871989
299.9617525749346
299.9622073257069
299.9629968266419
299.9642030302225
299.9659027543855
299.9681618412268
299.9710288156345
299.9745298831209
299.9786645162363
299.9834019542857
299.9886805490942
299.9944122298468
300.0004915310785
300.0068034146545
300.0132283844252
300.0196395252842
300.0258315427395
300.0313649251661
300.0355435680916
300.0377660339017
300.0383882981407
300.0385134392176
300.0385407863892
300.0384147556242
300.0380747203536
300.0374311386589
300.036401149554
300.0349035958534
300.0328639800894
300.0302220576183
300.0269371449539
300.022991959941
300.0183966635026
300.0131917586303
300.0074468512707
300.0012552529684
299.9947299309803
299.9880026841481
299.981231884606
299.9746798654463
299.968890368265
299.9646930808302
299.9626320903187
299.9621054334272
299.9619951703687
299.9619997391413
299.9621548199877
299.9625295172867
299.9632033482028
299.9642546800281
299.9657590025178
299.9677829345465
299.9703786863167
299.9735807591287
299.9774026442187
299.9818330053888
299.9868332966785
299.9923392062149
299.9982661806404
300.0045142633278
300.0109693682039
300.0175022109631
300.0239217934397
300.029813491585
300.0344617462846
300.0371776310196
300.038057504757
300.038200143022
300.0382546056074
300.0381706999378
300.0379058814335
300.037372665179
300.0364919682067
300.0351846849785
300.0333754083423
300.0310003375592
300.0280119549249
300.0243814654469
300.0201019617429
300.0151920108547
300.0096970049584
300.0036869297242
299.9972550943494
299.9905216605885
299.9836409927782
299.9768546160186
299.9706668201536
299.9659337393936
299.9633589432778
299.9625909747056
299.9624716492045
299.9624466522289
299.9625614184702
299.9628671786849
299.9634402542825
299.9643548915998
299.9656853443366
299.9674992641618
299.9698517910809
299.9727830896146
299.9763163375166
299.9804543888133
299.985176637036
299.990438417582
299.9961740901207
300.0023004324709
300.0087152665888
300.0152931920138
300.0218596321754
300.0280536358392
300.0331765815411
300.0364562308374
300.037721453984
300.0379292139179
300.0379930269792
300.0379444161775
300.0377415702571
300.0373026149665
300.0365532206437
300.035416639761
300.0338157000515
300.0316826284787
300.0289647288132
300.0256254008479
300.0216456050973
300.0170274012552
300.0117969629364
300.0060044215664
299.9997237523894
299.9930585617187
299.9861512470604
299.9792162216759
299.9726920021305
299.9674136462021
299.9642376585575
299.9631164573428
299.9629430179596
299.9629013196022
299.9629811883754
299.9632250733773
299.9637073396061
299.9644980188849
299.9656703575073
299.9672935917091
299.9694254103646
299.9721097087717
299.9753761741983
299.9792380072367
299.9836884376126
299.9886986460963
299.994219198578
300.0001826694362
300.0065007426019
300.0130572589572
300.0196954233775
300.0261198115304
300.0316917936531
300.0355611617882
300.0373280987899
300.0376867350969
300.0377483148928
300.0377271380322
300.0375774585562
300.037221398963
300.0365884458088
300.035604542744
300.0341920130414
300.0322800682285
300.0298115525814
300.0267436025971
300.0230481058579
300.0187146643052
300.0137541598808
300.0082001018973
300.0021091167196
299.9955672181512
299.9887011694108
299.9817008796776
299.9749304224537
299.9691457303985
299.9653162390052
299.9637111589998
299.9634090230524
299.9633599609276
299.9634114256531
299.9636028848522
299.9640057520794
299.9646855148554
299.9657136450276
299.9671611608476
299.9690887748313
299.9715438566067
299.9745611080288
299.9781613884022
299.982348412521
299.9871060607863
299.9923984427606
299.998171623177
300.0043512738444
300.0108351307504
300.0174821237179
300.024051732069
300.0300045911338
300.0344617500066
300.0368225562833
300.0374598919555
300.0375170166121
300.0375199333344
300.0374124248209
300.0371264767934
300.0365953325027
300.0357488300545
300.0345095489278
300.0328029457201
300.0305667234314
300.0277527904325
300.0243266477875
300.0202687926741
300.0155780953808
300.0102744350403
300.0043998133046
299.9980236832531
299.9912550873526
299.9842602206442
299.977333762241
299.9711142242293
299.9666199912589
299.9644251195676
299.9638783722103
299.9638236009168
299.9638515683124
299.9640000160044
299.9643338831346
299.9649154969914
299.965813529309
299.9670997355833
299.9688378124943
299.9710785921542
299.9738609588353
299.9772118300415
299.9811434073878
299.9856500831219
299.9907072422954
299.9962723904635
300.002284325458
300.008654820106
300.0152564874425
300.0218912882763
300.0281371982708
300.0331600336637
300.0361664450468
300.0372096317176
300.0373169199291
300.0373279346533
300.0372500078725
300.0370223416193
300.0365783514416
300.0358534799186
300.0347710434864
300.0332537928826
300.0312350780642
300.0286619165879
300.0254938645914
300.0217036833182
300.0172804968328
300.0122330179603
300.0065910972119
300.0004092186675
299.9937785968156
299.9868444801173
299.979848778464
299.9733018959411
299.9681732384888
299.9653046522329
299.9643855030925
299.9642900018833
299.9643018814593
299.9644147918269
299.9646912125526
299.9651876917376
299.9659686809586
299.9671062466379
299.9686675261196
299.9707070431548
299.9732671543649
299.9763794883279
299.9800632096865
299.9843216411076
299.9891399899777
299.9944857978223
300.0003090693024
300.0065345778268
300.0130503793271
300.0196903682489
300.0261315831714
300.0316497951223
300.0353138510569
300.0368844168933
300.0371514199384
300.0371476643079
300.0370929464835
300.0369124515667
300.0365431783279
300.0359242499941
300.0349825115096
300.033639870476
300.0318254579039
300.0294807962156
300.026559719035
300.023028690512
300.0188690517675
300.0140801118157
300.0086811908972
300.0027140280579
299.9962535084539
299.9894244419186
299.9824277273974
299.9756615684772
299.9699711900112
299.966382550754
299.9649710386717
299.9647450470816
299.9647534095208
299.9648370259569
299.9650643830586
299.965487114335
299.9661649287949
299.967167916104
299.9685654915256
299.9704159220194
299.9727653310476
299.9756496888555
299.979093918671
299.9831087562168
299.9876881159341
299.9928084799163
299.9984291108287
300.0044872443693
300.0108867898457
300.0174835390328
300.0240232487085
300.0299347933363
300.0342579094128
300.0364473555043
300.0369809467872
300.0369914993792
300.0369505972154
300.0368020155367
300.0364936185672
300.0359646583784
300.035147620104
300.0339643818532
300.0323402332285
300.0302120715422
300.0275287827359
300.024250762909
300.0203519131477
300.0158228696377
300.0106736436394
300.0049356087126
299.9986685804869
299.9919772561166
299.9850336992536
299.9781529771892
299.9720122497836
299.9676924830935
299.9656825145925
299.9652120150814
299.9652039045839
299.9652642766686
299.9654512721734
299.9658121184114
299.9664003118762
299.9672823680411
299.9685292861442
299.9702031674039
299.9723537211041
299.9750203995265
299.9782327778666
299.9820080795334
299.9863481964722
299.9912379775647
299.9966454147203
300.0025192848168
300.008777274592
300.0152915056116
300.0218578294323
300.0280499410941
300.0329830200224
300.0358303507938
300.0367776801596
300.03686981331
300.0368208755951
300.0366990501987
300.0364375409231
300.03598259164
300.0352721441049
300.0342303571868
300.0327811641134
300.0308574614478
300.0284025262788
300.0253703081466
300.0217279340521
300.0174586359825
300.0125641057031
300.0070661936629
300.001011297963
299.9944862481658
299.987639528734
299.980721273652
299.9742544239942
299.9692533651224
299.9665618450363
299.9657222016917
299.96564887429
299.9657033963386
299.9658499217919
299.9661580238815
299.9666699280299
299.9674458744507
299.9685566036559
299.9700673252612
299.9720310322646
299.9744904117884
299.977479218857
299.9810202688426
299.9851223213236
299.9897779785174
299.9949634082256
300.0006370341707
300.0067300380332
300.0131327085018
300.0196760128204
300.0260322588808
300.031475412314
300.0350200567165
300.0365153434429
300.0367538378967
300.0367149915764
300.0366130481715
300.0363880594926
300.035992832443
300.035371826129
300.0344549527808
300.0331647209717
300.0314301017735
300.0291902771954
300.026394359721
300.0230031808516
300.018992487415
300.0143556412148
300.0091054947988
300.0032773497844
299.9969411544859
299.9902224329384
299.9833296893722
299.9766689300349
299.9710871766547
299.9676384222178
299.9663099683411
299.9660943352471
299.9661371333951
299.9662543041193
299.9665190933187
299.9669669963469
299.9676512552024
299.9686391543352
299.9699982477093
299.9717857600282
299.9740483319327
299.9768234694342
299.9801382090409
299.9840066354406
299.9884279699327
299.9933856219524
299.9988466723469
300.0047564004169
300.0110227336792
300.0174975868926
300.0239237501413
300.0297518246166
300.0340022783595
300.0361062228951
300.0366341719298
300.0366434591703
300.036548351681
300.0363506149648
300.0360010582909
300.0354516725223
300.0346399203735
300.0334905040099
300.0319303937559
300.0298945872373
300.0273261965526
300.0241789653369
300.0204217736891
300.0160413789
300.0110435795115
300.0054546892743
299.9993287073538
299.9927683367956
299.9859512380228
299.9791946068744
299.9731614530559
299.968942793391
299.9670268629241
299.9665622131537
299.9665596776033
299.9666586323654
299.96688392173
299.9672794040908
299.9678866090917
299.968766840641
299.9699877616788
299.9716100758164
299.9736849128546
299.9762544865537
299.9793505862194
299.9829920707497
299.987183198242
299.9919128585619
299.9971548375537
300.0028652543121
300.0089687192716
300.0153397627822
300.0217738417743
300.0278537677082
300.0327266406058
300.0355142917078
300.0364902324188
300.0365834405693
300.0365027130633
300.0363341477374
300.0360182228204
300.0355213089774
300.0347931957744
300.0337652377969
300.0323635298893
300.0305187089676
300.0281681275575
300.0252586257602
300.021751439965
300.0176260625566
300.0128818952016
300.0075385684523
300.0016385566644
299.9952640216403
299.988564241046
299.9817919652459
299.9754572251434
299.9705409191727
299.9679107589988
299.9670699922305
299.9669726594222
299.9670559221318
299.9672412308918
299.9675964472158
299.9681455132348
299.9689392092807
299.9700401865612
299.9715100109403
299.9734044965557
299.9757731401993
299.9786554566636
299.9820764252004
299.986044640314
299.9905524784203
299.9955769871669
300.0010802479777
300.0070014322945
300.0132379310293
300.0196203879065
300.0258285808467
300.0311904710614
300.0347308434241
300.0362202125892
300.0365243611751
300.0364904476518
300.03634506217
300.0360606619017
300.0356037658717
300.0349364445214
300.0340022117829
300.0327343661315
300.0310647435465
300.0289254692506
300.0262528123823
300.0229957332097
300.0191237390883
300.0146296222985
300.0095287914323
300.0038588034965
299.9976877854037
299.9911379435969
299.9844163868805
299.9779153062993
299.9724336416985
299.9690057078519
299.967688047752
299.9674253102762
299.9674386314541
299.9675910272653
299.9679032605603
299.9684060927697
299.9691363493822
299.970145524951
299.9714879711774
299.9732172400603
299.9753875895404
299.978050158084
299.9812436516688
299.9849869546622
299.9892775896959
299.9940936482843
299.9993970077543
300.0051323847056
300.0112119283123
300.0174952516975
300.0237426434887
300.0294405838389
300.0336731982133
300.035796562246
300.0364146156695
300.0364808706089
300.03638191663
300.0361476565136
300.035726848654
300.0350992606922
300.0342256413075
300.0330544224105
300.0315268385402
300.0295781147445
300.0271390542126
300.0241434268207
300.0205398267811
300.0163030563543
300.0114403209997
300.0059895447058
300.0000161512692
299.9936286475465
299.9870036703394
299.9804391069593
299.9745584999344
299.97038825794
299.9684527551618
299.9679376387819
299.967857438418
299.9679416075167
299.9681847089097
299.9686317433062
299.9693124206469
299.9702628885946
299.9715207000405
299.9731243638047
299.9751195017358
299.9775616036925
299.9805078287382
299.984001646458
299.9880597200665
299.9926674968478
299.9977837153618
300.0033489008297
300.0092802526601
300.0154519804537
300.0216722817627
300.0275604053537
300.0323346781407
300.0351806800922
300.0362071450378
300.0363863767257
300.0363944748428
300.0362478887466
300.0359089735022
300.0353367136621
300.0344993706146
300.0333682309517
300.0319153243773
300.0301030673615
300.0278736714073
300.0251503595014
300.0218523915929
300.0179167747204
300.0133181727725
300.0080829782136
300.0022860018846
299.996043515489
299.9895243484523
299.9829664115512
299.9768341440262
299.9720465235387
299.9693876402376
299.968515338819
299.968381076924
299.9683831100808
299.9685281708922
299.9688588258206
299.9694259354347
299.9702856436888
299.9714838570635
299.9730441453271
299.9749705183635
299.9772619565497
299.9799343911894
299.9830494238198
299.9867278809394
299.9911075268475
299.9962553076625
300.0020617996635
300.0081937103841
300.0138151908206
300.0194776380709
)
;

boundaryField
{
    inlet
    {
        type            fixedValue;
        value           uniform 300;
    }
    outlet
    {
        type            temperatureOutletNSCBC;
        pInf            101325;
        gamma           1.4;
        etaAc           1;
        fieldInf        1;
        lInf            2.25;
        value           uniform 300.0222013720414;
    }
    frontAndBack
    {
        type            empty;
    }
}


// ************************************************************************* //
