/*--------------------------------*- C++ -*----------------------------------*\
| =========                 |                                                 |
| \\      /  F ield         | OpenFOAM: The Open Source CFD Toolbox           |
|  \\    /   O peration     | Version:  v2012                                 |
|   \\  /    A nd           | Website:  www.openfoam.com                      |
|    \\/     M anipulation  |                                                 |
\*---------------------------------------------------------------------------*/
FoamFile
{
    version     2.0;
    format      ascii;
    class       volVectorField;
    location    "0.014";
    object      U;
}
// * * * * * * * * * * * * * * * * * * * * * * * * * * * * * * * * * * * * * //

dimensions      [0 1 -1 0 0 0 0];


internalField   nonuniform List<vector> 
1000
(
(-0.002703813866596981 0 0)
(-0.03438521594147977 0 0)
(-0.04260809553018211 0 0)
(-0.05785144042581994 0 0)
(-0.07178419420270134 0 0)
(-0.08469104624580712 0 0)
(-0.09567942755307876 0 0)
(-0.1050588099187189 0 0)
(-0.1130839652757823 0 0)
(-0.1185245971579882 0 0)
(-0.1201035390661405 0 0)
(-0.1199688266944027 0 0)
(-0.1190773455386305 0 0)
(-0.1165556317114556 0 0)
(-0.1117502593810398 0 0)
(-0.104464467661307 0 0)
(-0.09495402006381648 0 0)
(-0.08362709246949104 0 0)
(-0.07082972154004905 0 0)
(-0.05680539048885097 0 0)
(-0.04175589242262991 0 0)
(-0.02590438496338293 0 0)
(-0.009521515684694101 0 0)
(0.007078910631320654 0 0)
(0.02355684181936154 0 0)
(0.03956764317041524 0 0)
(0.05479810195631715 0 0)
(0.06904858818582173 0 0)
(0.08229824819511652 0 0)
(0.09459808119789734 0 0)
(0.1056213884528951 0 0)
(0.1137685899180863 0 0)
(0.1172562484781514 0 0)
(0.1177062924193177 0 0)
(0.1175067582986395 0 0)
(0.1168180473759415 0 0)
(0.1150521967458722 0 0)
(0.1115788529512145 0 0)
(0.1058757549725267 0 0)
(0.09768371468440727 0 0)
(0.08707845748927143 0 0)
(0.07441372357008065 0 0)
(0.06017612917015742 0 0)
(0.04483755554945465 0 0)
(0.02877879531401388 0 0)
(0.01229799614944595 0 0)
(-0.004333461729088165 0 0)
(-0.02082688322105422 0 0)
(-0.0368872771556473 0 0)
(-0.05228320570423119 0 0)
(-0.06691773871769446 0 0)
(-0.08078362194927934 0 0)
(-0.09376485376904542 0 0)
(-0.105015916336432 0 0)
(-0.1123254251643903 0 0)
(-0.1148279065964267 0 0)
(-0.1151226594705795 0 0)
(-0.1146973993890354 0 0)
(-0.1139635720247943 0 0)
(-0.1123739224654917 0 0)
(-0.1094483622986723 0 0)
(-0.1046665563006349 0 0)
(-0.09765111350184909 0 0)
(-0.08826707002055094 0 0)
(-0.0766450668874792 0 0)
(-0.06314046752548315 0 0)
(-0.04823902506255225 0 0)
(-0.03244482332012859 0 0)
(-0.01619834445438469 0 0)
(0.000153441650681765 0 0)
(0.01635011434996072 0 0)
(0.03220559818239234 0 0)
(0.0476173040617786 0 0)
(0.06256135290343343 0 0)
(0.07697395876423295 0 0)
(0.0904963420401661 0 0)
(0.102033679641378 0 0)
(0.1095117098964671 0 0)
(0.1121826642729835 0 0)
(0.1125320040419113 0 0)
(0.1121901960810725 0 0)
(0.1115751615276233 0 0)
(0.1102017127936669 0 0)
(0.1076855889968111 0 0)
(0.1035763892903097 0 0)
(0.09747473452937309 0 0)
(0.08912033512815687 0 0)
(0.0784575883316249 0 0)
(0.06566336724784363 0 0)
(0.05111833957065028 0 0)
(0.03532877620100082 0 0)
(0.01882820907157357 0 0)
(0.002089359111780379 0 0)
(-0.01453335332807514 0 0)
(-0.0308224096170854 0 0)
(-0.04668815359431529 0 0)
(-0.06212016065686692 0 0)
(-0.07702544410909426 0 0)
(-0.09093093620381469 0 0)
(-0.102546167884929 0 0)
(-0.1097628892828668 0 0)
(-0.1121779417189519 0 0)
(-0.1124590344388112 0 0)
(-0.112065499359728 0 0)
(-0.1113971279125541 0 0)
(-0.1100363069366797 0 0)
(-0.107645627540616 0 0)
(-0.103823585066717 0 0)
(-0.09819518402950597 0 0)
(-0.09048089668048505 0 0)
(-0.08055498866355593 0 0)
(-0.06848667162133797 0 0)
(-0.05454536964744883 0 0)
(-0.03916082958625764 0 0)
(-0.02284660208097497 0 0)
(-0.006107013367466965 0 0)
(0.01064632624884814 0 0)
(0.02714090344440109 0 0)
(0.0432465891029862 0 0)
(0.05892907726880039 0 0)
(0.07408755582636753 0 0)
(0.08826972865827896 0 0)
(0.1003043942295948 0 0)
(0.1081526659863686 0 0)
(0.1110222657033261 0 0)
(0.1114027877284416 0 0)
(0.1110518009888714 0 0)
(0.110443014400361 0 0)
(0.1092340233165001 0 0)
(0.1071103863780852 0 0)
(0.1037065481664515 0 0)
(0.0986675262840248 0 0)
(0.09169331827115075 0 0)
(0.08258891330401026 0 0)
(0.0713138809038492 0 0)
(0.05801291311663735 0 0)
(0.04301044677848024 0 0)
(0.02676465858399582 0 0)
(0.009787590315191323 0 0)
(-0.007447897118578229 0 0)
(-0.02457899851816217 0 0)
(-0.04138062842257762 0 0)
(-0.05773740025818245 0 0)
(-0.07348521617927065 0 0)
(-0.08808221224282266 0 0)
(-0.1002051722041664 0 0)
(-0.107801136713846 0 0)
(-0.1104234328418993 0 0)
(-0.1107473043747366 0 0)
(-0.1103846135033201 0 0)
(-0.1097772100731423 0 0)
(-0.1085971079944224 0 0)
(-0.1065627476492366 0 0)
(-0.103340050965499 0 0)
(-0.09859746122702492 0 0)
(-0.09204775109896984 0 0)
(-0.08349068472885565 0 0)
(-0.07285378837269678 0 0)
(-0.06022132760911278 0 0)
(-0.04583984881164651 0 0)
(-0.03009254526069398 0 0)
(-0.0134411158327613 0 0)
(0.003653808845836967 0 0)
(0.02080406627818986 0 0)
(0.037732988900448 0 0)
(0.0542725846305943 0 0)
(0.07024024671404479 0 0)
(0.08513341697742934 0 0)
(0.09778521202586192 0 0)
(0.1062647052548058 0 0)
(0.1095851956095929 0 0)
(0.1100596185154084 0 0)
(0.1097785548548852 0 0)
(0.1092012449159093 0 0)
(0.1081372451551544 0 0)
(0.1063083268720639 0 0)
(0.1034047542549326 0 0)
(0.09911581301909678 0 0)
(0.09314963297733908 0 0)
(0.08527050317431285 0 0)
(0.07534218814062432 0 0)
(0.06336336652980282 0 0)
(0.04948548159749111 0 0)
(0.03400659063884448 0 0)
(0.01733495957122839 0 0)
(-7.557930481321048e-05 0 0)
(-0.0177950452696223 0 0)
(-0.03546669286709227 0 0)
(-0.05282187085501145 0 0)
(-0.06957191311602302 0 0)
(-0.08507771931017957 0 0)
(-0.09794889831133517 0 0)
(-0.1061470286977767 0 0)
(-0.1091181072347258 0 0)
(-0.1095068926158778 0 0)
(-0.1092016411323593 0 0)
(-0.1086341035192664 0 0)
(-0.1075865500190663 0 0)
(-0.1058106741426175 0 0)
(-0.1030200759462541 0 0)
(-0.09892283853730828 0 0)
(-0.09324471780152294 0 0)
(-0.0857629311163427 0 0)
(-0.07633988768964235 0 0)
(-0.06495140606984778 0 0)
(-0.05170454700166186 0 0)
(-0.03683873389250148 0 0)
(-0.0207024056536441 0 0)
(-0.003703164778411589 0 0)
(0.0137519045143691 0 0)
(0.0313015845154066 0 0)
(0.04865589418694088 0 0)
(0.06552841771673289 0 0)
(0.08134009040435651 0 0)
(0.09486517217173189 0 0)
(0.1041949967161237 0 0)
(0.1081430594973217 0 0)
(0.1087746419564077 0 0)
(0.1085780235175979 0 0)
(0.1080302533062702 0 0)
(0.1070857993139579 0 0)
(0.1054831351432448 0 0)
(0.1029574536310347 0 0)
(0.0992372475002386 0 0)
(0.09405028272516193 0 0)
(0.0871511434059577 0 0)
(0.0783581461229686 0 0)
(0.06758516080237077 0 0)
(0.05486400550289348 0 0)
(0.0403550759382409 0 0)
(0.02433881362399233 0 0)
(0.007181709194423851 0 0)
(-0.01071255684212654 0 0)
(-0.02894456028166834 0 0)
(-0.04714502935290357 0 0)
(-0.064911728018152 0 0)
(-0.08149736795668869 0 0)
(-0.0953969909921579 0 0)
(-0.1045022038502225 0 0)
(-0.1080446454754297 0 0)
(-0.1085602253152155 0 0)
(-0.1083181161762952 0 0)
(-0.1077788515112862 0 0)
(-0.1068307694179467 0 0)
(-0.1052469334927248 0 0)
(-0.102782490471537 0 0)
(-0.09918123968411252 0 0)
(-0.09418702304269493 0 0)
(-0.08757255530866731 0 0)
(-0.07916851371191222 0 0)
(-0.06888736096609908 0 0)
(-0.05674254425927754 0 0)
(-0.04286013777969796 0 0)
(-0.02747515435141751 0 0)
(-0.01090591339608595 0 0)
(0.00648620126962167 0 0)
(0.02433156100909694 0 0)
(0.04227848818179775 0 0)
(0.05996477518420581 0 0)
(0.07675655292803736 0 0)
(0.09135225278737609 0 0)
(0.101792142814262 0 0)
(0.1066388384886331 0 0)
(0.1075521655320925 0 0)
(0.1074512372517852 0 0)
(0.1069356300726134 0 0)
(0.1060976784140517 0 0)
(0.1046725802911343 0 0)
(0.1024396512784562 0 0)
(0.09916308543550341 0 0)
(0.09459449192767105 0 0)
(0.08849197768411418 0 0)
(0.08065287255053344 0 0)
(0.07094200775640248 0 0)
(0.05931248600444088 0 0)
(0.04582121549857419 0 0)
(0.03063482476660902 0 0)
(0.01401708754295686 0 0)
(-0.003699082449850832 0 0)
(-0.02213668761614092 0 0)
(-0.04089234858795284 0 0)
(-0.05950382202545433 0 0)
(-0.07717439526968314 0 0)
(-0.09230295583572627 0 0)
(-0.1026257286295503 0 0)
(-0.1070258547235305 0 0)
(-0.107767617969067 0 0)
(-0.1076154401701768 0 0)
(-0.1071173259917531 0 0)
(-0.1062652892923881 0 0)
(-0.104841226018252 0 0)
(-0.1026365231964328 0 0)
(-0.0994273604611441 0 0)
(-0.0949799241189313 0 0)
(-0.08907386031670715 0 0)
(-0.08152713098330756 0 0)
(-0.07221544037294723 0 0)
(-0.06108963363220147 0 0)
(-0.04819133328611538 0 0)
(-0.0336601174815425 0 0)
(-0.01772392330715154 0 0)
(-0.000674331646093701 0 0)
(0.01715527883688769 0 0)
(0.03540412188291855 0 0)
(0.05367717465478807 0 0)
(0.07134235511097246 0 0)
(0.08708452266326759 0 0)
(0.09886541341916943 0 0)
(0.1049416363883055 0 0)
(0.1063479595224444 0 0)
(0.1063558286951267 0 0)
(0.1059069114740068 0 0)
(0.1051724666498066 0 0)
(0.1039035822618505 0 0)
(0.1019076783634662 0 0)
(0.09898356865186089 0 0)
(0.09491070148386302 0 0)
(0.08945990012166559 0 0)
(0.08242221373458365 0 0)
(0.07363485769655251 0 0)
(0.06299971108665638 0 0)
(0.05049918274165556 0 0)
(0.03620863715995483 0 0)
(0.02029702822906405 0 0)
(0.003014016573370964 0 0)
(-0.01532080160894475 0 0)
(-0.03432044698443758 0 0)
(-0.05351137539290265 0 0)
(-0.07211165785580383 0 0)
(-0.08851274993628483 0 0)
(-0.1002938281980987 0 0)
(-0.1058950783506692 0 0)
(-0.1070571277221752 0 0)
(-0.1070141188257063 0 0)
(-0.1065739908924656 0 0)
(-0.1058294623453585 0 0)
(-0.1045541185523666 0 0)
(-0.1025715610162321 0 0)
(-0.0996865400374377 0 0)
(-0.09568814987801259 0 0)
(-0.09036784683513266 0 0)
(-0.08354197848162265 0 0)
(-0.07506802695193152 0 0)
(-0.06485834991781089 0 0)
(-0.0528951222926402 0 0)
(-0.03924255823200869 0 0)
(-0.02404811060488298 0 0)
(-0.007530003944190921 0 0)
(0.01003487825146 0 0)
(0.02831331978624519 0 0)
(0.04691294994209391 0 0)
(0.06524864628549787 0 0)
(0.0820798724183206 0 0)
(0.09530159833365841 0 0)
(0.102877464603735 0 0)
(0.1050891870293765 0 0)
(0.1052322122028837 0 0)
(0.1048940842971536 0 0)
(0.1042588761657247 0 0)
(0.103144090584383 0 0)
(0.1013648770344366 0 0)
(0.09874436594470952 0 0)
(0.09508668425923762 0 0)
(0.09017888185257029 0 0)
(0.08381680450112274 0 0)
(0.07582694352184526 0 0)
(0.0660808290733768 0 0)
(0.05450942097513573 0 0)
(0.04111836442873362 0 0)
(0.02599688042708607 0 0)
(0.009315430773802102 0 0)
(-0.008675158856259918 0 0)
(-0.02763274130670022 0 0)
(-0.04710491139589034 0 0)
(-0.06637427991540504 0 0)
(-0.08395087340018034 0 0)
(-0.09734071461208503 0 0)
(-0.1044794520740407 0 0)
(-0.1063655355072931 0 0)
(-0.1064588907330376 0 0)
(-0.1061064003150034 0 0)
(-0.1054741911207283 0 0)
(-0.1043470241500734 0 0)
(-0.1025683702076342 0 0)
(-0.09996674547923295 0 0)
(-0.09635122027669943 0 0)
(-0.09152658097560069 0 0)
(-0.08531441137293219 0 0)
(-0.07756585313967362 0 0)
(-0.06817114437721554 0 0)
(-0.05707253845015877 0 0)
(-0.04427823003446935 0 0)
(-0.02986982351266413 0 0)
(-0.01399851052643271 0 0)
(0.00312001586250335 0 0)
(0.02119854465045955 0 0)
(0.0398680243469468 0 0)
(0.05860499560413873 0 0)
(0.07633424299302373 0 0)
(0.09098687313942448 0 0)
(0.1002661988484057 0 0)
(0.1036835103432077 0 0)
(0.1040725383604992 0 0)
(0.1038510696205754 0 0)
(0.1033237212550954 0 0)
(0.1023664798179749 0 0)
(0.1007910971613352 0 0)
(0.09843954919060285 0 0)
(0.09513882842695229 0 0)
(0.09069475962544812 0 0)
(0.08491293422244972 0 0)
(0.0776172007235565 0 0)
(0.06866177268218726 0 0)
(0.05794424470879554 0 0)
(0.04542072573965998 0 0)
(0.03111824599327951 0 0)
(0.01513923376320623 0 0)
(-0.002333441424227237 0 0)
(-0.02101734850962343 0 0)
(-0.0405052227890255 0 0)
(-0.06016689869541064 0 0)
(-0.07871420452057742 0 0)
(-0.09370942698958576 0 0)
(-0.102624402112581 0 0)
(-0.1055967713478552 0 0)
(-0.1059080840330944 0 0)
(-0.1056606310792614 0 0)
(-0.1051471088334336 0 0)
(-0.104180335662175 0 0)
(-0.1026048137802403 0 0)
(-0.1002659555297622 0 0)
(-0.09698999504227128 0 0)
(-0.09259527083549243 0 0)
(-0.0869122016815963 0 0)
(-0.07979309134943553 0 0)
(-0.07111801915550937 0 0)
(-0.06080504602645486 0 0)
(-0.04882339512565367 0 0)
(-0.03520386058105247 0 0)
(-0.02004143916733543 0 0)
(-0.003494921748705537 0 0)
(0.01420266735770594 0 0)
(0.03272518455526159 0 0)
(0.05161216073059571 0 0)
(0.06998399062642832 0 0)
(0.08595306170705827 0 0)
(0.09701074341704588 0 0)
(0.1019750549665582 0 0)
(0.1028422443560589 0 0)
(0.1027421489626153 0 0)
(0.1023364530535262 0 0)
(0.1015442634272223 0 0)
(0.1001723140726397 0 0)
(0.09807440112271482 0 0)
(0.09509699177608688 0 0)
(0.09106175165990181 0 0)
(0.08578484480130333 0 0)
(0.07909465547817864 0 0)
(0.07084014397298807 0 0)
(0.06089975155127256 0 0)
(0.04919509240818837 0 0)
(0.03570557468249009 0 0)
(0.02047806344266651 0 0)
(0.003634475784860094 0 0)
(-0.01460675867042789 0 0)
(-0.03389526134371573 0 0)
(-0.05368209542693224 0 0)
(-0.0729072059602368 0 0)
(-0.08935986254908365 0 0)
(-0.1001892389320084 0 0)
(-0.1046256700558706 0 0)
(-0.1053418100457265 0 0)
(-0.1052065708161383 0 0)
(-0.1048161308455227 0 0)
(-0.1040158659098588 0 0)
(-0.1026438510245297 0 0)
(-0.1005579878395227 0 0)
(-0.09759906432348248 0 0)
(-0.09359506908754472 0 0)
(-0.08838332490408007 0 0)
(-0.08182037233111021 0 0)
(-0.07378421874774146 0 0)
(-0.06418043052255488 0 0)
(-0.05295332393884724 0 0)
(-0.04009745265180877 0 0)
(-0.02566393226179896 0 0)
(-0.009761560456812382 0 0)
(0.007431997495538775 0 0)
(0.02564197733401509 0 0)
(0.04446299725188741 0 0)
(0.06319249585549962 0 0)
(0.08024797550094431 0 0)
(0.09304511772790812 0 0)
(0.09979724144107012 0 0)
(0.1015110458517609 0 0)
(0.1015534251302572 0 0)
(0.1012778418039959 0 0)
(0.1006572611935091 0 0)
(0.09949364398540149 0 0)
(0.09764784253349718 0 0)
(0.09497735640547254 0 0)
(0.09131514522629441 0 0)
(0.08648818923310365 0 0)
(0.08033407061149088 0 0)
(0.07270377531095118 0 0)
(0.06346607033259734 0 0)
(0.05252058591978826 0 0)
(0.03981360608016618 0 0)
(0.02534976175896062 0 0)
(0.009199908647468934 0 0)
(-0.008477435994675004 0 0)
(-0.02739402410107837 0 0)
(-0.0470827176724125 0 0)
(-0.06669656934200106 0 0)
(-0.08436785660212248 0 0)
(-0.09712468668125661 0 0)
(-0.1033067937594805 0 0)
(-0.1047387104621765 0 0)
(-0.1047331733080262 0 0)
(-0.1044650803624223 0 0)
(-0.1038344683017671 0 0)
(-0.1026710921949645 0 0)
(-0.1008364242312565 0 0)
(-0.09818063259616878 0 0)
(-0.09453943894685569 0 0)
(-0.08975673200488046 0 0)
(-0.08369513128061214 0 0)
(-0.07623467428721803 0 0)
(-0.06727504236411946 0 0)
(-0.05674498727401971 0 0)
(-0.04461383778162011 0 0)
(-0.03089964203870812 0 0)
(-0.01567196406115787 0 0)
(0.0009377079712163981 0 0)
(0.01870633749384403 0 0)
(0.03728888563149678 0 0)
(0.05612368166851325 0 0)
(0.07396764274429812 0 0)
(0.08837181590913169 0 0)
(0.09701452201746039 0 0)
(0.1000070922143254 0 0)
(0.1002925532286957 0 0)
(0.1001277354971086 0 0)
(0.09969001749734537 0 0)
(0.0987364123817034 0 0)
(0.0971390138605118 0 0)
(0.09476415007212279 0 0)
(0.09145479476075824 0 0)
(0.08704523846862224 0 0)
(0.08137948669386766 0 0)
(0.07431330329634521 0 0)
(0.06571409468124227 0 0)
(0.05546998493661475 0 0)
(0.04350461708197638 0 0)
(0.02979066900543813 0 0)
(0.01435935671843215 0 0)
(-0.002682052806324173 0 0)
(-0.02110967494764195 0 0)
(-0.04053331297877653 0 0)
(-0.06026464005523923 0 0)
(-0.078816256465461 0 0)
(-0.0933864278144433 0 0)
(-0.1015147937555443 0 0)
(-0.1040338522598588 0 0)
(-0.1042350843555032 0 0)
(-0.1040808432565461 0 0)
(-0.1036202146173865 0 0)
(-0.1026650187064948 0 0)
(-0.1010803475779415 0 0)
(-0.09872270650902232 0 0)
(-0.09543153868833806 0 0)
(-0.09105309173886279 0 0)
(-0.08545422416278883 0 0)
(-0.07851896479590303 0 0)
(-0.07014647166820401 0 0)
(-0.06025804058298411 0 0)
(-0.04880742790423063 0 0)
(-0.03578902708433744 0 0)
(-0.02124225850434289 0 0)
(-0.005259124540441233 0 0)
(0.0119898411682884 0 0)
(0.03021767305183625 0 0)
(0.04895581342070113 0 0)
(0.06726327451408827 0 0)
(0.08304979125950461 0 0)
(0.09360232662149535 0 0)
(0.09815282488029248 0 0)
(0.09893042491333227 0 0)
(0.09889855085436247 0 0)
(0.09861147245461413 0 0)
(0.09787199798149523 0 0)
(0.09652754021919401 0 0)
(0.09444714092603002 0 0)
(0.09148015296661556 0 0)
(0.08746348017165353 0 0)
(0.08224672718669784 0 0)
(0.07569481563930307 0 0)
(0.06768029351598034 0 0)
(0.05808641927919885 0 0)
(0.04682177114770815 0 0)
(0.03383574474147776 0 0)
(0.01912909536224997 0 0)
(0.002766572484839701 0 0)
(-0.01508716391973422 0 0)
(-0.0341111114215205 0 0)
(-0.05374305941796404 0 0)
(-0.07284617010704682 0 0)
(-0.08898690707814086 0 0)
(-0.09915215320703526 0 0)
(-0.1030952630539006 0 0)
(-0.103702294269266 0 0)
(-0.1036425973256907 0 0)
(-0.1033332821789385 0 0)
(-0.1025863643223579 0 0)
(-0.101249489766174 0 0)
(-0.09918591607215027 0 0)
(-0.09623798530315791 0 0)
(-0.09225078369203721 0 0)
(-0.08709168241294302 0 0)
(-0.0806481048871312 0 0)
(-0.07282114986854016 0 0)
(-0.06352883273781242 0 0)
(-0.05271525928199154 0 0)
(-0.04035925942822613 0 0)
(-0.0264793945779368 0 0)
(-0.01113756599964229 0 0)
(0.005539579576449408 0 0)
(0.02331571779121185 0 0)
(0.04180324400628658 0 0)
(0.06029769816950848 0 0)
(0.07714810698351143 0 0)
(0.089525365769447 0 0)
(0.0958306871606716 0 0)
(0.09745340255195339 0 0)
(0.09757494202784116 0 0)
(0.09741705763593256 0 0)
(0.09689209397332151 0 0)
(0.09579858433904956 0 0)
(0.09400801657368919 0 0)
(0.09137533778089227 0 0)
(0.08774093030015116 0 0)
(0.08295545303704974 0 0)
(0.07688841293946926 0 0)
(0.06941800474768245 0 0)
(0.060428388059646 0 0)
(0.04982104607451975 0 0)
(0.03753016418890447 0 0)
(0.02353450065171646 0 0)
(0.007866628628487421 0 0)
(-0.009359775438744063 0 0)
(-0.02789105371615002 0 0)
(-0.04726830458667079 0 0)
(-0.06661349108144257 0 0)
(-0.08396445171057494 0 0)
(-0.09616810543823498 0 0)
(-0.1018296272760307 0 0)
(-0.1031525264995827 0 0)
(-0.1031692957605757 0 0)
(-0.1030066658308912 0 0)
(-0.1024527637653593 0 0)
(-0.1013547117428875 0 0)
(-0.09957921568583501 0 0)
(-0.09696860665930827 0 0)
(-0.09336354463648246 0 0)
(-0.08862833198344119 0 0)
(-0.08265196855919835 0 0)
(-0.07533796012358185 0 0)
(-0.06660339788084137 0 0)
(-0.05638710173211651 0 0)
(-0.04465816357709279 0 0)
(-0.03142062107197455 0 0)
(-0.01671578116938788 0 0)
(-0.0006369859805566919 0 0)
(0.0166309701084884 0 0)
(0.03477067960205479 0 0)
(0.05322467505539302 0 0)
(0.07075104141834307 0 0)
(0.08479112160643823 0 0)
(0.0929866866920973 0 0)
(0.09581396068215965 0 0)
(0.09614452675603108 0 0)
(0.09613197374071669 0 0)
(0.09579615301158557 0 0)
(0.09494804893704593 0 0)
(0.09344773978572538 0 0)
(0.09114997769115118 0 0)
(0.08789472106875754 0 0)
(0.08352905268087987 0 0)
(0.07792355037213645 0 0)
(0.07096375213079525 0 0)
(0.06253969152614033 0 0)
(0.05255046650550395 0 0)
(0.04091949427929271 0 0)
(0.02760895470282432 0 0)
(0.01262890214140965 0 0)
(-0.003944793735235237 0 0)
(-0.02192001059461509 0 0)
(-0.04092371666435812 0 0)
(-0.06026645227263561 0 0)
(-0.07844224706205598 0 0)
(-0.09254923016142301 0 0)
(-0.1001520533728765 0 0)
(-0.1024903575708343 0 0)
(-0.1026720547576983 0 0)
(-0.1026353719159644 0 0)
(-0.1022586593197092 0 0)
(-0.1013926137611987 0 0)
(-0.09989351413897844 0 0)
(-0.09760974193021464 0 0)
(-0.09437772503513152 0 0)
(-0.0900562258867922 0 0)
(-0.08453310936407016 0 0)
(-0.07771289168723776 0 0)
(-0.0695118169737957 0 0)
(-0.05986454417311315 0 0)
(-0.04873266343100311 0 0)
(-0.03611028492928803 0 0)
(-0.0220266113505069 0 0)
(-0.006551452266024303 0 0)
(0.01017509538835825 0 0)
(0.02788942663533748 0 0)
(0.04613735163596604 0 0)
(0.06400909165510754 0 0)
(0.07944357350957527 0 0)
(0.08955741683237489 0 0)
(0.0938645784620324 0 0)
(0.09464299371873572 0 0)
(0.0947685093895569 0 0)
(0.09458070357954013 0 0)
(0.09397532772517656 0 0)
(0.0927563755663131 0 0)
(0.09078366796233032 0 0)
(0.08789751497085505 0 0)
(0.0839405175310973 0 0)
(0.07878214884036895 0 0)
(0.07231228067166925 0 0)
(0.06442575799125055 0 0)
(0.05502222680933984 0 0)
(0.04401922075328331 0 0)
(0.03136706440150002 0 0)
(0.01705981726795804 0 0)
(0.001145603998349254 0 0)
(-0.01623646040803917 0 0)
(-0.03478269427830894 0 0)
(-0.0539335327008971 0 0)
(-0.07256257743717599 0 0)
(-0.08825806759978233 0 0)
(-0.09793745118797827 0 0)
(-0.1016134893308404 0 0)
(-0.1022078039234603 0 0)
(-0.1022449018252418 0 0)
(-0.1020106568545443 0 0)
(-0.1013590010726245 0 0)
(-0.1001207311853657 0 0)
(-0.09815002402872954 0 0)
(-0.09528006602477256 0 0)
(-0.09136191552899636 0 0)
(-0.0862798779438219 0 0)
(-0.07993948609794113 0 0)
(-0.07225662946619492 0 0)
(-0.06316125701438306 0 0)
(-0.05260710566157717 0 0)
(-0.04057905378318891 0 0)
(-0.02709605627186862 0 0)
(-0.01221291717314154 0 0)
(0.003959325348618585 0 0)
(0.021203442940403 0 0)
(0.03914819755889555 0 0)
(0.05710717108265376 0 0)
(0.07350402986325631 0 0)
(0.0854976430068215 0 0)
(0.09148630392493645 0 0)
(0.09312483998095575 0 0)
(0.09330415690950584 0 0)
(0.0932777539908478 0 0)
(0.09288276037165871 0 0)
(0.09193349913599473 0 0)
(0.09027871863965396 0 0)
(0.08775566899629109 0 0)
(0.08420208208167945 0 0)
(0.07948088786427303 0 0)
(0.07348234574958182 0 0)
(0.06610854018723412 0 0)
(0.05726493717724229 0 0)
(0.04686650946665671 0 0)
(0.03485263869292583 0 0)
(0.02120183960709597 0 0)
(0.00594175589957636 0 0)
(-0.01082556106880231 0 0)
(-0.0288580545678201 0 0)
(-0.0477030130356584 0 0)
(-0.06650216870303755 0 0)
(-0.08335481369818849 0 0)
(-0.09511752491943946 0 0)
(-0.1004312778735414 0 0)
(-0.1017333713638743 0 0)
(-0.1017787156952647 0 0)
(-0.1017086283350461 0 0)
(-0.1012521592700259 0 0)
(-0.1002666198387383 0 0)
(-0.098600774131714 0 0)
(-0.09608094529935304 0 0)
(-0.09254885829571474 0 0)
(-0.08788632314513176 0 0)
(-0.08200319296605958 0 0)
(-0.07481902219054429 0 0)
(-0.06626144463478466 0 0)
(-0.05627580724488799 0 0)
(-0.04483456282951757 0 0)
(-0.03194360857480219 0 0)
(-0.01764584206386023 0 0)
(-0.002030945523971429 0 0)
(0.0147272304112201 0 0)
(0.0323138295873712 0 0)
(0.05017321415061529 0 0)
(0.06713845307078128 0 0)
(0.08081477618537419 0 0)
(0.0886715109986226 0 0)
(0.09143367622204901 0 0)
(0.09176205452855668 0 0)
(0.09188714505024427 0 0)
(0.09166369060011523 0 0)
(0.09097875014490131 0 0)
(0.08964008413414176 0 0)
(0.08748189160045748 0 0)
(0.0843275942490621 0 0)
(0.08003071821110788 0 0)
(0.07448406900046697 0 0)
(0.06759911495848595 0 0)
(0.05928974843158245 0 0)
(0.04947335802377499 0 0)
(0.03808230849656196 0 0)
(0.02507919365914088 0 0)
(0.0104717649731968 0 0)
(-0.005669886746131387 0 0)
(-0.02316330799465575 0 0)
(-0.04163054223819746 0 0)
(-0.06037893970676399 0 0)
(-0.07797448647616495 0 0)
(-0.09165516387461295 0 0)
(-0.0989186630114982 0 0)
(-0.1011367496362756 0 0)
(-0.1013486829631107 0 0)
(-0.1013765217710686 0 0)
(-0.1010843472632316 0 0)
(-0.1003407651958512 0 0)
(-0.09897451697767005 0 0)
(-0.09680741967126673 0 0)
(-0.09366225183154009 0 0)
(-0.08940627018484387 0 0)
(-0.08395122208891119 0 0)
(-0.07722927147082152 0 0)
(-0.06917778605131789 0 0)
(-0.05974128321289245 0 0)
(-0.04888125365972661 0 0)
(-0.03658651139154977 0 0)
(-0.02288111693154699 0 0)
(-0.007831698253397005 0 0)
(0.008423008175758603 0 0)
(0.02561454202132532 0 0)
(0.04328399313193311 0 0)
(0.06055262357457138 0 0)
(0.07550630369807013 0 0)
(0.0853291152903215 0 0)
(0.08941085568350181 0 0)
(0.0902800337364769 0 0)
(0.09037654087215206 0 0)
(0.09029984891835785 0 0)
(0.08984812555653846 0 0)
(0.08882352989815173 0 0)
(0.08704287091211305 0 0)
(0.08430743776251132 0 0)
(0.08044673927267887 0 0)
(0.07534117773603499 0 0)
(0.0689101121783789 0 0)
(0.06108878317071393 0 0)
(0.05181370804745379 0 0)
(0.04102198918388548 0 0)
(0.02866361486718857 0 0)
(0.01472152439612498 0 0)
(-0.0007688438791700404 0 0)
(-0.01767976889949984 0 0)
(-0.03570935154317215 0 0)
(-0.05429387962318723 0 0)
(-0.07233627036332882 0 0)
(-0.08754410043238932 0 0)
(-0.0969249280795707 0 0)
(-0.100391497830849 0 0)
(-0.1010392127949311 0 0)
(-0.1009896918222961 0 0)
(-0.1008360131533794 0 0)
(-0.100298297181438 0 0)
(-0.09922696874581076 0 0)
(-0.09742794952725939 0 0)
(-0.09469537954487278 0 0)
(-0.0908649519393636 0 0)
(-0.08583111209695266 0 0)
(-0.07953218333557102 0 0)
(-0.07192881391596438 0 0)
(-0.06298865899261465 0 0)
(-0.05268105877440669 0 0)
(-0.04098345060294784 0 0)
(-0.0278957229245584 0 0)
(-0.01345315979923388 0 0)
(0.002250825731579446 0 0)
(0.01900583195918127 0 0)
(0.03642496294966768 0 0)
(0.0538120585251792 0 0)
(0.06967499338040242 0 0)
(0.08141345965396413 0 0)
(0.08721227781833929 0 0)
(0.08876673969207255 0 0)
(0.08884548016159892 0 0)
(0.08884151899439953 0 0)
(0.08854181253282831 0 0)
(0.08779887708729441 0 0)
(0.08640215924969014 0 0)
(0.08412301881588555 0 0)
(0.08074763719660601 0 0)
(0.07611981238311955 0 0)
(0.07014317938090049 0 0)
(0.0627623398818106 0 0)
(0.05394519947181453 0 0)
(0.04366879360675054 0 0)
(0.03190680584992131 0 0)
(0.01863102083590592 0 0)
(0.003835062670853655 0 0)
(-0.01242099519835592 0 0)
(-0.02992300217507255 0 0)
(-0.04821791629523016 0 0)
(-0.06646037765545008 0 0)
(-0.0828236798167738 0 0)
(-0.09434062163388786 0 0)
(-0.09953178065323005 0 0)
(-0.1007092120398694 0 0)
(-0.10069655622609 0 0)
(-0.1005316503067688 0 0)
(-0.1000973944735375 0 0)
(-0.09925799336059 0 0)
(-0.09781581135087203 0 0)
(-0.09554045555890692 0 0)
(-0.09221148902541947 0 0)
(-0.08766612671470438 0 0)
(-0.0818104702793212 0 0)
(-0.07461027250373728 0 0)
(-0.06607252886857277 0 0)
(-0.05621806340668506 0 0)
(-0.04505567590847722 0 0)
(-0.03257833776228687 0 0)
(-0.01878526231445386 0 0)
(-0.003713258843549195 0 0)
(0.01250485292869923 0 0)
(0.02956239155606828 0 0)
(0.04690799960985353 0 0)
(0.06341176468003046 0 0)
(0.07678014190555962 0 0)
(0.08460893265888568 0 0)
(0.08724225328518856 0 0)
(0.08760532015891953 0 0)
(0.08741635381732489 0 0)
(0.08713331848474606 0 0)
(0.08650397036352102 0 0)
(0.08539633856792159 0 0)
(0.08358870762861761 0 0)
(0.08081012546530374 0 0)
(0.07680556139720379 0 0)
(0.07138879184105196 0 0)
(0.06446502580265223 0 0)
(0.05602459332475195 0 0)
(0.04611375934202647 0 0)
(0.03479317640463411 0 0)
(0.0220955278041767 0 0)
(0.008010716894338479 0 0)
(-0.007484654844931205 0 0)
(-0.02431931583931631 0 0)
(-0.04217224304282047 0 0)
(-0.06038467347761994 0 0)
(-0.07754986777081005 0 0)
(-0.09095095229495867 0 0)
(-0.09826024372051881 0 0)
(-0.1004450151272352 0 0)
(-0.100661637737976 0 0)
(-0.1004396100627762 0 0)
(-0.1000053555984225 0 0)
(-0.09918207670875676 0 0)
(-0.09787955639833694 0 0)
(-0.09594802475988716 0 0)
(-0.0931771325595341 0 0)
(-0.08933113039535932 0 0)
(-0.08418440232415143 0 0)
(-0.07755734466284966 0 0)
(-0.06936375759646503 0 0)
(-0.05966380286270043 0 0)
(-0.04867243855141968 0 0)
(-0.0366493987167439 0 0)
(-0.02366373253224789 0 0)
(-0.009542869418230838 0 0)
(0.006147826532049323 0 0)
(0.02232917474128795 0 0)
(0.04160137205308327 0 0)
)
;

boundaryField
{
    inlet
    {
        type            zeroGradient;
    }
    outlet
    {
        type            velocityOutletNSCBCx;
        pInf            101325;
        gamma           1.4;
        etaAc           1;
        fieldInf        (-1 0 0);
        lInf            2.25;
        value           uniform (0.0491419079339938 0 0);
    }
    frontAndBack
    {
        type            empty;
    }
}


// ************************************************************************* //
