/*--------------------------------*- C++ -*----------------------------------*\
| =========                 |                                                 |
| \\      /  F ield         | OpenFOAM: The Open Source CFD Toolbox           |
|  \\    /   O peration     | Version:  v2012                                 |
|   \\  /    A nd           | Website:  www.openfoam.com                      |
|    \\/     M anipulation  |                                                 |
\*---------------------------------------------------------------------------*/
FoamFile
{
    version     2.0;
    format      ascii;
    class       volVectorField;
    location    "0.014";
    object      UMean;
}
// * * * * * * * * * * * * * * * * * * * * * * * * * * * * * * * * * * * * * //

dimensions      [0 1 -1 0 0 0 0];


internalField   nonuniform List<vector> 
1000
(
(-2.574890934566599e-05 0 0)
(1.963553628391492e-07 0 0)
(1.512901857037492e-05 0 0)
(4.432405934286254e-05 0 0)
(7.858365843293954e-05 0 0)
(0.0001134649325481372 0 0)
(0.0001594071568384972 0 0)
(0.0002076895605427733 0 0)
(0.0002649771236827598 0 0)
(0.0003249314057701514 0 0)
(0.0003873433683736101 0 0)
(0.0004492750826518123 0 0)
(0.0005108140967000517 0 0)
(0.000571526075816295 0 0)
(0.0006304312347981015 0 0)
(0.0006864671549197047 0 0)
(0.0007381029057518436 0 0)
(0.0007844873480444417 0 0)
(0.000824582245538778 0 0)
(0.0008579239925303995 0 0)
(0.0008838172666225717 0 0)
(0.0009018729419453279 0 0)
(0.0009117821756683444 0 0)
(0.0009132692691492929 0 0)
(0.00090639710289802 0 0)
(0.0008911840344630968 0 0)
(0.000868046769367127 0 0)
(0.0008372174498986504 0 0)
(0.0007993047498503481 0 0)
(0.0007546770114027438 0 0)
(0.0007038418051518936 0 0)
(0.0006475899345589871 0 0)
(0.0005880148522597569 0 0)
(0.000527250566658354 0 0)
(0.0004664632857981532 0 0)
(0.000405851689323217 0 0)
(0.0003459143587843585 0 0)
(0.0002872550392265484 0 0)
(0.0002310218360220987 0 0)
(0.0001783411693389832 0 0)
(0.0001304868992240849 0 0)
(8.847505693823662e-05 0 0)
(5.338474996574584e-05 0 0)
(2.57155064012779e-05 0 0)
(5.976268623505177e-06 0 0)
(-5.640489490065519e-06 0 0)
(-8.783838317034142e-06 0 0)
(-3.544373834955648e-06 0 0)
(1.003628709691025e-05 0 0)
(3.182926694968126e-05 0 0)
(6.152248741803144e-05 0 0)
(9.871417554902252e-05 0 0)
(0.0001432240933196186 0 0)
(0.0001945389166495816 0 0)
(0.0002512260212376892 0 0)
(0.000310925983115223 0 0)
(0.0003716822414905727 0 0)
(0.0004325460851221248 0 0)
(0.0004932547892759877 0 0)
(0.0005533858248348603 0 0)
(0.0006123718678248174 0 0)
(0.0006691478954997727 0 0)
(0.0007227693866863669 0 0)
(0.0007720343804822993 0 0)
(0.0008155485905257569 0 0)
(0.0008523943395326093 0 0)
(0.0008817520358528897 0 0)
(0.0009029317883542298 0 0)
(0.0009157968589072112 0 0)
(0.0009200326692326544 0 0)
(0.0009156884124144342 0 0)
(0.0009028398381135733 0 0)
(0.0008818523028684848 0 0)
(0.0008527610600734436 0 0)
(0.0008158724522012715 0 0)
(0.0007713757339385825 0 0)
(0.0007201377366146518 0 0)
(0.0006632723305028761 0 0)
(0.000603400133066088 0 0)
(0.000542502742018211 0 0)
(0.0004813990600814977 0 0)
(0.0004205412584997608 0 0)
(0.0003602112895671105 0 0)
(0.0003009751916356278 0 0)
(0.0002435252965824974 0 0)
(0.000188809010963495 0 0)
(0.0001381953095962537 0 0)
(9.255123319849344e-05 0 0)
(5.329203819810552e-05 0 0)
(2.122072652665425e-05 0 0)
(-2.690793043936383e-06 0 0)
(-1.829754511559896e-05 0 0)
(-2.486996356598642e-05 0 0)
(-2.274561147387786e-05 0 0)
(-1.190069974044444e-05 0 0)
(7.420761921343086e-06 0 0)
(3.514621515778736e-05 0 0)
(7.094154985559397e-05 0 0)
(0.0001144429363089362 0 0)
(0.0001652040261419946 0 0)
(0.000221376521027833 0 0)
(0.0002804261010587253 0 0)
(0.0003405611835251155 0 0)
(0.0004007442163831437 0 0)
(0.0004608597504565255 0 0)
(0.0005204003504112297 0 0)
(0.000579103052151205 0 0)
(0.0006359216810258391 0 0)
(0.0006902017953381647 0 0)
(0.0007408327190408584 0 0)
(0.0007866923503602154 0 0)
(0.0008265684326690268 0 0)
(0.0008595850792103743 0 0)
(0.0008847727195288325 0 0)
(0.0009016461833981492 0 0)
(0.0009098709846458768 0 0)
(0.0009092334406350215 0 0)
(0.0008998179074977203 0 0)
(0.0008818441488813692 0 0)
(0.0008554903300808331 0 0)
(0.0008210431401081303 0 0)
(0.0007785169495903866 0 0)
(0.000729030653671967 0 0)
(0.0006737447130086125 0 0)
(0.0006152105074259432 0 0)
(0.0005555921891881147 0 0)
(0.0004957124202053538 0 0)
(0.0004359650746865412 0 0)
(0.0003766204898191695 0 0)
(0.0003181436005471839 0 0)
(0.0002611779616599302 0 0)
(0.0002063857890716501 0 0)
(0.0001549893316898492 0 0)
(0.0001079320004818342 0 0)
(6.634408023071827e-05 0 0)
(3.130286622401793e-05 0 0)
(3.905635283759882e-06 0 0)
(-1.544815219942387e-05 0 0)
(-2.581142305368234e-05 0 0)
(-2.72401785135267e-05 0 0)
(-1.955426305107494e-05 0 0)
(-3.027905516953261e-06 0 0)
(2.243979492092482e-05 0 0)
(5.636020997600956e-05 0 0)
(9.840952221552148e-05 0 0)
(0.0001478473277298737 0 0)
(0.0002030816939040089 0 0)
(0.000261253803671368 0 0)
(0.0003205511261048796 0 0)
(0.0003800309839368817 0 0)
(0.0004393909096306372 0 0)
(0.0004983498975445173 0 0)
(0.0005565218089215917 0 0)
(0.0006132364367979427 0 0)
(0.0006677235997517297 0 0)
(0.0007189847339951995 0 0)
(0.0007663113883221582 0 0)
(0.0008081739847053205 0 0)
(0.0008439393334676377 0 0)
(0.0008724172276086796 0 0)
(0.0008929614277080264 0 0)
(0.0009049717056291199 0 0)
(0.0009081084417997276 0 0)
(0.00090217687689486 0 0)
(0.0008873413922967588 0 0)
(0.0008636793215442613 0 0)
(0.0008315138361227571 0 0)
(0.0007910201741621153 0 0)
(0.0007430662486682357 0 0)
(0.000689193481585569 0 0)
(0.0006317212055132646 0 0)
(0.0005729889970794327 0 0)
(0.0005139692101745377 0 0)
(0.0004549885150010509 0 0)
(0.0003963535580086912 0 0)
(0.0003383233133360427 0 0)
(0.0002816750204964644 0 0)
(0.000226778585852521 0 0)
(0.0001747300161377353 0 0)
(0.0001265096623895152 0 0)
(8.307840081756805e-05 0 0)
(4.553229743104138e-05 0 0)
(1.50077902174413e-05 0 0)
(-7.830038512321419e-06 0 0)
(-2.215049145290144e-05 0 0)
(-2.742880684325677e-05 0 0)
(-2.342520803209724e-05 0 0)
(-1.01680633000955e-05 0 0)
(1.239156869123451e-05 0 0)
(4.391601172080834e-05 0 0)
(8.41909669684244e-05 0 0)
(0.0001319964803710351 0 0)
(0.0001861037713773939 0 0)
(0.0002433699628920456 0 0)
(0.0003018333171133427 0 0)
(0.0003604500955339017 0 0)
(0.0004192035655789208 0 0)
(0.0004774840163037986 0 0)
(0.0005351430064438711 0 0)
(0.0005915803762193677 0 0)
(0.0006461326679501527 0 0)
(0.0006978125379910862 0 0)
(0.0007460252502162201 0 0)
(0.0007894692326752366 0 0)
(0.0008273335452737135 0 0)
(0.0008584897486891506 0 0)
(0.0008822763743870238 0 0)
(0.0008977566525691075 0 0)
(0.0009045836503617192 0 0)
(0.0009022376564228207 0 0)
(0.0008908351354957239 0 0)
(0.0008701269410866805 0 0)
(0.0008405798895732909 0 0)
(0.0008023186990499163 0 0)
(0.0007560532228166762 0 0)
(0.0007035254895973528 0 0)
(0.0006470598007076547 0 0)
(0.0005890669289157784 0 0)
(0.0005307311640867292 0 0)
(0.0004724205267211724 0 0)
(0.0004143230949998553 0 0)
(0.0003567268843980908 0 0)
(0.0003002325050535276 0 0)
(0.0002453140713076895 0 0)
(0.0001928062763237719 0 0)
(0.0001435149308641444 0 0)
(9.867921829046401e-05 0 0)
(5.899084915403232e-05 0 0)
(2.577395832860137e-05 0 0)
(-2.366252851533525e-07 0 0)
(-1.810806367423796e-05 0 0)
(-2.730018055353251e-05 0 0)
(-2.710949327677988e-05 0 0)
(-1.750291783153614e-05 0 0)
(1.741350785520321e-06 0 0)
(3.042262898402318e-05 0 0)
(6.836170137608868e-05 0 0)
(0.0001143635343978566 0 0)
(0.0001670281049422741 0 0)
(0.0002234014740691023 0 0)
(0.0002810813785098102 0 0)
(0.0003389061936754806 0 0)
(0.0003970049243369295 0 0)
(0.0004546238220099829 0 0)
(0.0005118628342457521 0 0)
(0.0005678606832002257 0 0)
(0.0006224527230588696 0 0)
(0.0006744075788842376 0 0)
(0.0007232102776623465 0 0)
(0.0007679194476346977 0 0)
(0.0008074391593930519 0 0)
(0.0008408740784798193 0 0)
(0.0008673963160263151 0 0)
(0.0008860697512805804 0 0)
(0.0008963145683286324 0 0)
(0.0008975311688343917 0 0)
(0.0008896070841203368 0 0)
(0.0008722058735641688 0 0)
(0.0008455636723805041 0 0)
(0.0008097419545475556 0 0)
(0.0007656146540424213 0 0)
(0.0007144464211005145 0 0)
(0.0006590391454656909 0 0)
(0.0006016834347331248 0 0)
(0.0005440210480759498 0 0)
(0.0004860553426135666 0 0)
(0.0004285510455060244 0 0)
(0.0003713688387446255 0 0)
(0.0003149671014470562 0 0)
(0.0002600439628488041 0 0)
(0.0002071880690023702 0 0)
(0.0001570314503217138 0 0)
(0.0001109414197582684 0 0)
(6.944499251060034e-05 0 0)
(3.391001594676899e-05 0 0)
(5.036880543528634e-06 0 0)
(-1.603054216636221e-05 0 0)
(-2.892494441045788e-05 0 0)
(-3.253331964008276e-05 0 0)
(-2.670608255129921e-05 0 0)
(-1.101469507396434e-05 0 0)
(1.436765806491712e-05 0 0)
(4.951327375401553e-05 0 0)
(9.341233430682809e-05 0 0)
(0.0001443416279390617 0 0)
(0.0001996943455360974 0 0)
(0.0002565608140502357 0 0)
(0.0003137743696469377 0 0)
(0.0003708682273789816 0 0)
(0.0004281487011786001 0 0)
(0.0004848087508342206 0 0)
(0.0005404564163522329 0 0)
(0.000594848300514216 0 0)
(0.0006470238448196056 0 0)
(0.0006963285631514142 0 0)
(0.0007418605679816441 0 0)
(0.0007828515023392528 0 0)
(0.0008181566442932946 0 0)
(0.0008470386216682647 0 0)
(0.0008685794319563133 0 0)
(0.0008819548372992008 0 0)
(0.0008865324942648624 0 0)
(0.0008820753621752262 0 0)
(0.0008680949726403325 0 0)
(0.0008445698496564104 0 0)
(0.0008115793924279223 0 0)
(0.0007698256399540071 0 0)
(0.0007203545770637158 0 0)
(0.0006660246498873193 0 0)
(0.0006093266268635181 0 0)
(0.0005522478351298201 0 0)
(0.0004945805800024857 0 0)
(0.0004376919018678428 0 0)
(0.0003807271875576323 0 0)
(0.0003245822278671193 0 0)
(0.0002695051146799016 0 0)
(0.0002164408089768414 0 0)
(0.0001656448505271829 0 0)
(0.0001183216384229856 0 0)
(7.53702797314453e-05 0 0)
(3.77314432059076e-05 0 0)
(6.344366843899188e-06 0 0)
(-1.767666793061399e-05 0 0)
(-3.387470847520498e-05 0 0)
(-4.12377380222137e-05 0 0)
(-3.915286589543111e-05 0 0)
(-2.718610377987873e-05 0 0)
(-5.288360276447058e-06 0 0)
(2.668220386493679e-05 0 0)
(6.795231609076343e-05 0 0)
(0.0001169837363404432 0 0)
(0.0001709669402817502 0 0)
(0.0002270693459518159 0 0)
(0.0002835776640865786 0 0)
(0.0003399209483457521 0 0)
(0.0003966411418207306 0 0)
(0.0004527061329881109 0 0)
(0.0005080329410672462 0 0)
(0.000562099639464516 0 0)
(0.0006144002415301711 0 0)
(0.000664100292814769 0 0)
(0.0007102451619950263 0 0)
(0.0007524525053861832 0 0)
(0.0007893082390994164 0 0)
(0.0008203031287262777 0 0)
(0.0008442443756407889 0 0)
(0.0008607314977794828 0 0)
(0.000868350749376221 0 0)
(0.0008672221073232561 0 0)
(0.0008566017971522723 0 0)
(0.0008364495809490978 0 0)
(0.0008064498445144926 0 0)
(0.0007673000552961445 0 0)
(0.0007199759127886258 0 0)
(0.0006668601049695513 0 0)
(0.0006108954493123028 0 0)
(0.0005542622016176568 0 0)
(0.000497171782493573 0 0)
(0.0004404525267998235 0 0)
(0.0003838660059931388 0 0)
(0.0003279805932460515 0 0)
(0.000272866202885576 0 0)
(0.0002195214513021052 0 0)
(0.0001682664795625244 0 0)
(0.0001199723825878275 0 0)
(7.56064292031539e-05 0 0)
(3.619412758898363e-05 0 0)
(2.562221756486988e-06 0 0)
(-2.424639998483939e-05 0 0)
(-4.336589741331498e-05 0 0)
(-5.42529588271698e-05 0 0)
(-5.588991595604374e-05 0 0)
(-4.767584201936889e-05 0 0)
(-2.93890507052832e-05 0 0)
(-9.290007208853078e-07 0 0)
(3.73383856582657e-05 0 0)
(8.411329726055756e-05 0 0)
(0.0001365031963408808 0 0)
(0.0001917336142754291 0 0)
(0.0002474753676964862 0 0)
(0.0003033890453708327 0 0)
(0.0003589131653341769 0 0)
(0.000414764057648322 0 0)
(0.0004696689904167029 0 0)
(0.000523480492403419 0 0)
(0.0005756577084781924 0 0)
(0.0006257128852625265 0 0)
(0.0006724502980849796 0 0)
(0.0007154360256255233 0 0)
(0.0007537564109932857 0 0)
(0.0007865131544921559 0 0)
(0.0008126666400010157 0 0)
(0.0008318056594911647 0 0)
(0.0008423662053780174 0 0)
(0.0008443603402882753 0 0)
(0.0008370900848181966 0 0)
(0.0008202530875998105 0 0)
(0.0007935192556566137 0 0)
(0.0007572277065549537 0 0)
(0.0007122667964476185 0 0)
(0.0006607342737053163 0 0)
(0.0006055583238474541 0 0)
(0.000549298251200307 0 0)
(0.0004929185813217745 0 0)
(0.0004359575029759096 0 0)
(0.0003801069666616346 0 0)
(0.0003243276682140106 0 0)
(0.0002692989589485438 0 0)
(0.000215632236440969 0 0)
(0.0001640307463014572 0 0)
(0.0001149870872570261 0 0)
(6.927728960777177e-05 0 0)
(2.82905964090838e-05 0 0)
(-7.393850997997373e-06 0 0)
(-3.669076695199368e-05 0 0)
(-5.859598954414234e-05 0 0)
(-7.272313661351895e-05 0 0)
(-7.798603210376037e-05 0 0)
(-7.341864035782201e-05 0 0)
(-5.893260674377291e-05 0 0)
(-3.402902114226652e-05 0 0)
(8.375231133150746e-07 0 0)
(4.491986587233522e-05 0 0)
(9.55338217857462e-05 0 0)
(0.0001496463479198442 0 0)
(0.0002046503172657955 0 0)
(0.0002599956587682984 0 0)
(0.0003146047099372792 0 0)
(0.0003701314977569784 0 0)
(0.0004244746675552546 0 0)
(0.0004780331825389964 0 0)
(0.0005300155031417883 0 0)
(0.0005802062166984887 0 0)
(0.0006274964922166999 0 0)
(0.0006711695493975907 0 0)
(0.0007106012596040079 0 0)
(0.0007449562832222431 0 0)
(0.0007731283049737979 0 0)
(0.000794457480251164 0 0)
(0.0008081278674909648 0 0)
(0.0008129204328806683 0 0)
(0.0008088220601995478 0 0)
(0.0007952438251976776 0 0)
(0.0007718869769348739 0 0)
(0.0007386331617303478 0 0)
(0.0006962817724574244 0 0)
(0.0006466907641085886 0 0)
(0.0005924764492964978 0 0)
(0.0005366826959017008 0 0)
(0.0004806580668531454 0 0)
(0.0004241461864256145 0 0)
(0.0003684441229446924 0 0)
(0.0003128164455768468 0 0)
(0.0002579620293209109 0 0)
(0.0002041210199428145 0 0)
(0.0001520415697684322 0 0)
(0.0001024686670091725 0 0)
(5.57020343974383e-05 0 0)
(1.309328289387737e-05 0 0)
(-2.436680189739825e-05 0 0)
(-5.591244466471648e-05 0 0)
(-8.066550385987017e-05 0 0)
(-9.739369357355111e-05 0 0)
(-0.0001062011513808507 0 0)
(-0.0001053540386795551 0 0)
(-9.461080961803347e-05 0 0)
(-7.346451526649161e-05 0 0)
(-4.211842289621371e-05 0 0)
(-1.130929653173937e-06 0 0)
(4.734194075175394e-05 0 0)
(0.0001001372668356651 0 0)
(0.0001543883872408588 0 0)
(0.0002089435252484225 0 0)
(0.0002632756480661118 0 0)
(0.0003175013324629938 0 0)
(0.0003716479385623826 0 0)
(0.0004249331564094655 0 0)
(0.0004767408828245525 0 0)
(0.0005268564809553462 0 0)
(0.00057461417072947 0 0)
(0.0006189765419334041 0 0)
(0.0006591936093523382 0 0)
(0.0006949641720689533 0 0)
(0.0007249393667213221 0 0)
(0.0007483149484994033 0 0)
(0.0007646805251134295 0 0)
(0.0007722091254958972 0 0)
(0.0007711047511544821 0 0)
(0.0007608258206107166 0 0)
(0.0007407249154078159 0 0)
(0.0007108223851244509 0 0)
(0.0006712455643269779 0 0)
(0.0006238409611337213 0 0)
(0.0005709052236533496 0 0)
(0.0005156743139162523 0 0)
(0.000459842114125731 0 0)
(0.0004041815049351873 0 0)
(0.0003477787054374835 0 0)
(0.0002929545623725258 0 0)
(0.000238148725041558 0 0)
(0.0001842551193600064 0 0)
(0.0001317795884974803 0 0)
(8.163786577958312e-05 0 0)
(3.411121491960709e-05 0 0)
(-9.955556036930804e-06 0 0)
(-4.917145542071576e-05 0 0)
(-8.265085809813898e-05 0 0)
(-0.0001100176989802932 0 0)
(-0.0001294324639378765 0 0)
(-0.0001415154158514943 0 0)
(-0.0001442447035550441 0 0)
(-0.0001371315510821983 0 0)
(-0.0001198445553791338 0 0)
(-9.213372442677946e-05 0 0)
(-5.45593463429598e-05 0 0)
(-8.611607569626294e-06 0 0)
(4.267363907345925e-05 0 0)
(9.604370780963537e-05 0 0)
(0.0001498175368005308 0 0)
(0.0002037731882318863 0 0)
(0.0002567494906489478 0 0)
(0.00031087948938283 0 0)
(0.0003636004363207596 0 0)
(0.0004152028510223496 0 0)
(0.0004652319320964612 0 0)
(0.0005131080343303065 0 0)
(0.0005581937767735469 0 0)
(0.0005991165318073599 0 0)
(0.0006359691324297726 0 0)
(0.0006676703176050797 0 0)
(0.0006929097622968513 0 0)
(0.0007114049518106954 0 0)
(0.0007220609790524015 0 0)
(0.0007236500204279197 0 0)
(0.0007164568931494548 0 0)
(0.0006995781355123899 0 0)
(0.000672987379535086 0 0)
(0.0006365320867020767 0 0)
(0.000591449000887423 0 0)
(0.0005402507884075127 0 0)
(0.0004855079719472433 0 0)
(0.0004300555857655694 0 0)
(0.0003747338778361254 0 0)
(0.0003186318600935298 0 0)
(0.0002639883911986606 0 0)
(0.0002091465344544144 0 0)
(0.0001553884770006336 0 0)
(0.0001026332831793047 0 0)
(5.185980515176205e-05 0 0)
(3.747257213323911e-06 0 0)
(-4.147334815005242e-05 0 0)
(-8.239732674937933e-05 0 0)
(-0.0001177434791280224 0 0)
(-0.0001473766684381682 0 0)
(-0.0001698096415790449 0 0)
(-0.0001841694314200681 0 0)
(-0.000190604701193578 0 0)
(-0.0001872485648296997 0 0)
(-0.0001737289887585192 0 0)
(-0.0001498790485491452 0 0)
(-0.0001157355919393583 0 0)
(-7.285404887220694e-05 0 0)
(-2.323510096358835e-05 0 0)
(2.87353965361394e-05 0 0)
(8.201034641660243e-05 0 0)
(0.0001351717865653103 0 0)
(0.0001880043737256105 0 0)
(0.0002406886891242903 0 0)
(0.0002932607216469958 0 0)
(0.000344711164533987 0 0)
(0.0003945668207686544 0 0)
(0.0004424762841581688 0 0)
(0.0004879805284081846 0 0)
(0.0005298171655094661 0 0)
(0.0005672779633171883 0 0)
(0.0006005625928318835 0 0)
(0.0006276851045887155 0 0)
(0.0006479614281753552 0 0)
(0.0006615287813515692 0 0)
(0.0006656315970724917 0 0)
(0.0006613888511512165 0 0)
(0.0006477860683337319 0 0)
(0.0006244255791445877 0 0)
(0.0005912937980013129 0 0)
(0.0005488124895301422 0 0)
(0.0004994985400033579 0 0)
(0.0004456626718380436 0 0)
(0.0003905646697562449 0 0)
(0.0003353521844650861 0 0)
(0.0002801881362295355 0 0)
(0.000224492186062492 0 0)
(0.0001705223778116672 0 0)
(0.0001167421183983754 0 0)
(6.38077914052041e-05 0 0)
(1.25878782828582e-05 0 0)
(-3.631389389359398e-05 0 0)
(-8.211192159935235e-05 0 0)
(-0.000125007196186051 0 0)
(-0.0001617444031837207 0 0)
(-0.0001934795378022119 0 0)
(-0.0002187647660938612 0 0)
(-0.0002357285333407219 0 0)
(-0.000245511476160328 0 0)
(-0.0002457408560806256 0 0)
(-0.0002358708588528953 0 0)
(-0.0002159327357185569 0 0)
(-0.0001854842629777568 0 0)
(-0.0001457122881027832 0 0)
(-9.858877194655468e-05 0 0)
(-4.734159647842251e-05 0 0)
(4.55213304776339e-06 0 0)
(5.714083453940096e-05 0 0)
(0.0001098146883495087 0 0)
(0.0001609984216337308 0 0)
(0.0002138245346446387 0 0)
(0.0002646583883784584 0 0)
(0.0003144244143617049 0 0)
(0.0003622792437505128 0 0)
(0.0004079264710879621 0 0)
(0.0004506763897234563 0 0)
(0.0004886695676411461 0 0)
(0.000523337258782199 0 0)
(0.0005521053501541975 0 0)
(0.0005741869604201868 0 0)
(0.000589840475651194 0 0)
(0.0005972025267829689 0 0)
(0.0005955493037015141 0 0)
(0.0005849884154047574 0 0)
(0.0005648431966003894 0 0)
(0.0005348927782530941 0 0)
(0.0004955728943281747 0 0)
(0.000447995083735328 0 0)
(0.0003960658349628112 0 0)
(0.0003405862775956886 0 0)
(0.0002858977372495592 0 0)
(0.0002311484458878372 0 0)
(0.0001754714327268903 0 0)
(0.0001217421039121958 0 0)
(6.773867444481527e-05 0 0)
(1.494693630313173e-05 0 0)
(-3.666834661012304e-05 0 0)
(-8.626323226810378e-05 0 0)
(-0.0001328132091644867 0 0)
(-0.0001768122390719559 0 0)
(-0.0002155604754400317 0 0)
(-0.000248946178984295 0 0)
(-0.0002767340991015827 0 0)
(-0.0002968826925543793 0 0)
(-0.0003087319989257105 0 0)
(-0.0003128615464849746 0 0)
(-0.0003068267559922855 0 0)
(-0.0002906473744895787 0 0)
(-0.0002641331850889088 0 0)
(-0.0002276333392182121 0 0)
(-0.0001833352208954651 0 0)
(-0.00013339134937685 0 0)
(-8.253787312166894e-05 0 0)
(-3.077912596334752e-05 0 0)
(2.127095748544863e-05 0 0)
(7.245009374766089e-05 0 0)
(0.0001236841252868361 0 0)
(0.000174536818969016 0 0)
(0.0002242213268426398 0 0)
(0.0002719659309270469 0 0)
(0.0003177177466296921 0 0)
(0.0003608456116847036 0 0)
(0.000400109695162425 0 0)
(0.0004349233405862321 0 0)
(0.0004657699110145143 0 0)
(0.0004894546937399463 0 0)
(0.000506962596851547 0 0)
(0.0005174390769109936 0 0)
(0.0005181116763299637 0 0)
(0.0005105272568743736 0 0)
(0.0004936725284064747 0 0)
(0.0004669210970487198 0 0)
(0.0004307467507540763 0 0)
(0.0003856790735895515 0 0)
(0.0003350307848267316 0 0)
(0.0002806208486938014 0 0)
(0.0002255918790956336 0 0)
(0.0001710645397820405 0 0)
(0.0001164727235872972 0 0)
(6.129533417948656e-05 0 0)
(8.358708427469277e-06 0 0)
(-4.463015082769228e-05 0 0)
(-9.650205680976064e-05 0 0)
(-0.000146596708273837 0 0)
(-0.0001941340520872782 0 0)
(-0.0002384266178637462 0 0)
(-0.0002798446219729374 0 0)
(-0.0003144060100413291 0 0)
(-0.0003444517874920987 0 0)
(-0.0003673609220280068 0 0)
(-0.0003819583050115706 0 0)
(-0.000389388742807436 0 0)
(-0.0003870406870755292 0 0)
(-0.0003745735129338477 0 0)
(-0.0003519594897421508 0 0)
(-0.0003191961762660499 0 0)
(-0.000277599645744695 0 0)
(-0.0002299535345701283 0 0)
(-0.0001794908856885948 0 0)
(-0.0001288909929387486 0 0)
(-7.766321424556205e-05 0 0)
(-2.641125647753456e-05 0 0)
(2.307931846920609e-05 0 0)
(7.449984601825597e-05 0 0)
(0.0001234136907361738 0 0)
(0.0001712220425152566 0 0)
(0.0002169558411010154 0 0)
(0.0002602175101194132 0 0)
(0.0003006159379172489 0 0)
(0.0003356875775699399 0 0)
(0.0003679929142972924 0 0)
(0.000393646712074778 0 0)
(0.0004128067355000208 0 0)
(0.0004252195076429179 0 0)
(0.0004294743339049061 0 0)
(0.0004243232899983344 0 0)
(0.0004105040445246866 0 0)
(0.000386976476652214 0 0)
(0.00035387336923766 0 0)
(0.0003118015659155542 0 0)
(0.0002624733272976377 0 0)
(0.0002096611335712917 0 0)
(0.0001546592660242613 0 0)
(9.978158789332015e-05 0 0)
(4.578150074394888e-05 0 0)
(-9.447237818345593e-06 0 0)
(-6.238080252429102e-05 0 0)
(-0.0001155763711727974 0 0)
(-0.0001673377841052063 0 0)
(-0.0002179640473211659 0 0)
(-0.0002662902212782161 0 0)
(-0.0003113696725246919 0 0)
(-0.0003540301930687489 0 0)
(-0.0003906142029656256 0 0)
(-0.0004221012677836287 0 0)
(-0.0004482620281805169 0 0)
(-0.0004659008482227211 0 0)
(-0.0004752361245996687 0 0)
(-0.0004770584123756201 0 0)
(-0.0004683802126070145 0 0)
(-0.0004495775566825085 0 0)
(-0.0004206825826533794 0 0)
(-0.000382248610265397 0 0)
(-0.0003370104232709377 0 0)
(-0.0002875556141749236 0 0)
(-0.0002375690651810517 0 0)
(-0.0001876413150934504 0 0)
(-0.0001367738024764325 0 0)
(-8.716502660084335e-05 0 0)
(-3.764510721244769e-05 0 0)
(1.166359057174099e-05 0 0)
(5.935049300499566e-05 0 0)
(0.0001049855254747657 0 0)
(0.0001484056577040371 0 0)
(0.0001892395586179141 0 0)
(0.0002255848573413448 0 0)
(0.0002582326049292803 0 0)
(0.0002859000537151559 0 0)
(0.0003063934236809449 0 0)
(0.0003209739687581724 0 0)
(0.0003283221587579509 0 0)
(0.0003254653830785259 0 0)
(0.0003146241449496931 0 0)
(0.0002944364980439721 0 0)
(0.0002644904742099169 0 0)
(0.0002253246643203872 0 0)
(0.0001782983761338131 0 0)
(0.0001263784516063494 0 0)
(7.213311872150436e-05 0 0)
(1.716318761776914e-05 0 0)
(-3.697922497453741e-05 0 0)
(-9.114343291741792e-05 0 0)
(-0.000145773623975779 0 0)
(-0.0001977359774736017 0 0)
(-0.0002499618468397027 0 0)
(-0.0003008736399827984 0 0)
(-0.0003498222929366066 0 0)
(-0.0003960467943877497 0 0)
(-0.0004388653519455677 0 0)
(-0.0004785698895576299 0 0)
(-0.0005114183542650781 0 0)
(-0.0005392621053624191 0 0)
(-0.0005601948680024764 0 0)
(-0.0005724942614030607 0 0)
(-0.0005772287198553065 0 0)
(-0.0005725597365599445 0 0)
(-0.0005574420963902694 0 0)
(-0.0005324623887467198 0 0)
(-0.0004976620554879885 0 0)
(-0.0004548087799995591 0 0)
(-0.0004072684525700997 0 0)
(-0.0003577065425074936 0 0)
(-0.0003082571407484405 0 0)
(-0.0002589011865032091 0 0)
(-0.000208823595113204 0 0)
(-0.0001611138952533857 0 0)
(-0.0001110903746236006 0 0)
(-6.421822486996653e-05 0 0)
(-1.836338418850871e-05 0 0)
(2.505522125381006e-05 0 0)
(6.599807936405599e-05 0 0)
(0.0001038179264872359 0 0)
(0.0001362895889076783 0 0)
(0.0001655645619183911 0 0)
(0.0001886471880377072 0 0)
(0.0002038776424284974 0 0)
(0.0002136029605712098 0 0)
(0.0002148059539662798 0 0)
(0.000206087285111718 0 0)
(0.0001890084560204545 0 0)
(0.0001622677702950008 0 0)
(0.0001261039428038404 0 0)
(8.163852324522504e-05 0 0)
(3.101849851063135e-05 0 0)
(-2.237678296483383e-05 0 0)
(-7.688290341539623e-05 0 0)
(-0.0001318701333537535 0 0)
(-0.0001852260265943273 0 0)
(-0.0002400033313913663 0 0)
(-0.0002925566461388116 0 0)
(-0.0003446519186297488 0 0)
(-0.0003955965716525462 0 0)
(-0.0004452039137793659 0 0)
(-0.0004923145444094898 0 0)
(-0.0005359229760516186 0 0)
(-0.0005770345231352016 0 0)
(-0.0006117780169974397 0 0)
(-0.0006414100252910981 0 0)
(-0.0006654997387098605 0 0)
(-0.0006808745043257129 0 0)
(-0.0006875685778484074 0 0)
(-0.0006872576795172933 0 0)
(-0.0006760555079103238 0 0)
(-0.0006547947144554936 0 0)
(-0.0006237771978132309 0 0)
(-0.0005840262026630399 0 0)
(-0.0005382162058004266 0 0)
(-0.0004899039882832444 0 0)
(-0.0004406559863177976 0 0)
(-0.0003922381708152142 0 0)
(-0.0003430523167347026 0 0)
(-0.0002945557744863747 0 0)
(-0.0002474185523100407 0 0)
(-0.0001991145365687398 0 0)
(-0.0001537012393363152 0 0)
(-0.0001102803636803469 0 0)
(-6.920204796047822e-05 0 0)
(-3.086697025893602e-05 0 0)
(2.952369865135481e-06 0 0)
(3.27750213870012e-05 0 0)
(5.733530081301537e-05 0 0)
(7.522006099894757e-05 0 0)
(8.58810587313534e-05 0 0)
(9.02172056862056e-05 0 0)
(8.432831127407558e-05 0 0)
(6.991715916344511e-05 0 0)
(4.664158969172446e-05 0 0)
(1.356900116505046e-05 0 0)
(-2.8287918589792e-05 0 0)
(-7.684715214168249e-05 0 0)
(-0.0001297824966065754 0 0)
(-0.0001835908598636727 0 0)
(-0.0002381185892244797 0 0)
(-0.00029284137196107 0 0)
(-0.0003458407174512219 0 0)
(-0.0004010200314097885 0 0)
(-0.000451107874666188 0 0)
(-0.0005030440363418293 0 0)
(-0.0005528203475387313 0 0)
(-0.000600751022735992 0 0)
(-0.0006456657655813603 0 0)
(-0.000686838439569625 0 0)
(-0.0007248597612375521 0 0)
(-0.0007561939936560841 0 0)
(-0.0007814082879581299 0 0)
(-0.0008012951347150315 0 0)
(-0.0008107770403836443 0 0)
(-0.0008122230601060477 0 0)
(-0.0008057273105155214 0 0)
(-0.0007883132667481205 0 0)
(-0.0007611132574670626 0 0)
(-0.0007248468110755414 0 0)
(-0.0006812975606092385 0 0)
(-0.0006343860352078227 0 0)
(-0.0005856619756562228 0 0)
(-0.0005373939567226679 0 0)
(-0.000489925749341377 0 0)
(-0.0004409049147079917 0 0)
(-0.0003944916506211775 0 0)
(-0.0003471226288200175 0 0)
(-0.0003015329133509574 0 0)
(-0.000258002950184373 0 0)
(-0.0002170025129173917 0 0)
(-0.0001785409361769663 0 0)
(-0.0001432320005145593 0 0)
(-0.0001132976898588466 0 0)
(-8.697504515564188e-05 0 0)
(-6.704553002957503e-05 0 0)
(-5.475368943668247e-05 0 0)
(-4.86182143549994e-05 0 0)
(-5.020061286410971e-05 0 0)
(-6.269744092821194e-05 0 0)
(-8.322219307615577e-05 0 0)
(-0.0001128162063249272 0 0)
(-0.0001518076308390348 0 0)
(-0.0001984304303036464 0 0)
(-0.0002496618030603296 0 0)
(-0.0003038636606577765 0 0)
(-0.000357588846420317 0 0)
(-0.0004120770668200855 0 0)
(-0.0004665092623113609 0 0)
(-0.0005191194977933253 0 0)
(-0.0005738230406952189 0 0)
(-0.0006227408567192546 0 0)
(-0.0006736121603822819 0 0)
(-0.000722137323104385 0 0)
(-0.0007679781617486399 0 0)
(-0.0008104358955793795 0 0)
(-0.0008490922112268439 0 0)
(-0.0008829613540327836 0 0)
(-0.0009108305897901671 0 0)
(-0.0009316450270224635 0 0)
(-0.0009467460424485725 0 0)
(-0.0009502786688950017 0 0)
(-0.0009466581541412324 0 0)
(-0.0009337150088489933 0 0)
(-0.0009100330806712868 0 0)
(-0.0008773519245422597 0 0)
(-0.0008368526499578197 0 0)
(-0.0007910323554749164 0 0)
(-0.0007441763999916019 0 0)
(-0.0006956393843280031 0 0)
(-0.0006480057262930006 0 0)
(-0.0006017229877518038 0 0)
(-0.0005531824945004182 0 0)
(-0.0005092956104172116 0 0)
(-0.0004605929307572112 0 0)
(-0.0004188860398204273 0 0)
(-0.0003773904182286916 0 0)
(-0.0003389167485338535 0 0)
(-0.0003036031418002529 0 0)
(-0.0002714566292663034 0 0)
(-0.0002453102789112618 0 0)
(-0.0002235286633335936 0 0)
(-0.0002081397952493766 0 0)
(-0.0002015485003047735 0 0)
(-0.0002003604342586799 0 0)
(-0.0002080509167160725 0 0)
(-0.0002267822386672602 0 0)
(-0.0002536442399031387 0 0)
(-0.0002893569991838435 0 0)
(-0.0003335902008098681 0 0)
(-0.0003835770223730234 0 0)
(-0.000436417115737863 0 0)
(-0.0004909909968403808 0 0)
(-0.0005445116325808512 0 0)
(-0.0005985872068090713 0 0)
(-0.0006534329394173673 0 0)
(-0.0007048049803636214 0 0)
(-0.0007594249804185388 0 0)
(-0.0008062391271432013 0 0)
(-0.0008570154751354872 0 0)
(-0.0009033467565098274 0 0)
(-0.0009471981962653793 0 0)
(-0.0009863232651161199 0 0)
(-0.00102222486570056 0 0)
(-0.001052042131629507 0 0)
(-0.001076076062536306 0 0)
(-0.00109220373657353 0 0)
(-0.001101923718730409 0 0)
(-0.001099424008380947 0 0)
(-0.00109091919401276 0 0)
(-0.001071449683778319 0 0)
(-0.001041744672375075 0 0)
(-0.00100446849608117 0 0)
(-0.0009609160668683361 0 0)
(-0.000914474668021413 0 0)
(-0.0008679974044544166 0 0)
(-0.0008203949220622073 0 0)
(-0.0007730293456486137 0 0)
(-0.00072800269712846 0 0)
(-0.0006803540826576372 0 0)
(-0.0006383335016673501 0 0)
(-0.0005883362858405885 0 0)
(-0.0005522993260211352 0 0)
(-0.0005126408992796103 0 0)
(-0.0004775634346562505 0 0)
(-0.0004436746063883389 0 0)
(-0.0004171863959320323 0 0)
(-0.0003934396587875421 0 0)
(-0.0003770752813721736 0 0)
(-0.0003661501309643865 0 0)
(-0.0003656515960865185 0 0)
(-0.0003679652457334137 0 0)
(-0.0003846488386074788 0 0)
(-0.0004065002376337637 0 0)
)
;

boundaryField
{
    inlet
    {
        type            calculated;
        value           uniform (-2.574890934566599e-05 0 0);
    }
    outlet
    {
        type            calculated;
        value           uniform (-0.0004230379349122274 0 0);
    }
    frontAndBack
    {
        type            empty;
    }
}


// ************************************************************************* //
