/*--------------------------------*- C++ -*----------------------------------*\
| =========                 |                                                 |
| \\      /  F ield         | OpenFOAM: The Open Source CFD Toolbox           |
|  \\    /   O peration     | Version:  v2012                                 |
|   \\  /    A nd           | Website:  www.openfoam.com                      |
|    \\/     M anipulation  |                                                 |
\*---------------------------------------------------------------------------*/
FoamFile
{
    version     2.0;
    format      ascii;
    class       volScalarField;
    location    "0.018";
    object      pMean;
}
// * * * * * * * * * * * * * * * * * * * * * * * * * * * * * * * * * * * * * //

dimensions      [1 -1 -2 0 0 0 0];


internalField   nonuniform List<scalar> 
1000
(
101327.9557122639
101329.7875376103
101332.1905081512
101329.5293188609
101326.1502846347
101328.8697048967
101327.4585987066
101326.7855390578
101323.6074242108
101326.2217886614
101329.2327902932
101332.9743133788
101331.251548833
101326.3470271623
101329.4173673924
101329.7251203901
101331.7059990511
101328.968770098
101327.3304257838
101328.620243785
101328.3851491235
101326.5107487203
101323.0386256719
101322.6708143655
101324.8697448876
101327.5030049005
101324.6737097075
101319.5794398322
101320.2390984795
101320.8852097636
101320.6511533489
101318.2989607256
101320.5546671927
101322.4496506972
101328.1352896212
101328.0171123853
101321.9873876229
101322.1301440349
101321.4399588091
101324.781383354
101323.8933596318
101323.0571107449
101323.9271382725
101327.4035929935
101327.6105827014
101322.1331713265
101320.7133823068
101316.7766954963
101321.9137056442
101322.4492943013
101319.2463931469
101318.0264048153
101321.0787180755
101321.8699941149
101321.2088373836
101318.0350758327
101319.4175763371
101321.0095669617
101323.412327391
101318.5982389335
101318.3276408948
101319.0790363819
101322.9896299923
101325.2181809536
101324.1103803997
101321.6161228025
101323.5019339973
101321.6594964429
101317.5442533512
101315.1278577898
101313.3116479541
101317.5731907042
101321.0023108745
101318.495484704
101316.8076872024
101315.7391010713
101317.6125503006
101315.6315191272
101312.5677209882
101314.0497983609
101315.9443513892
101320.296049358
101318.5237460612
101314.3093970584
101316.3887807662
101318.1116513071
101321.4159903143
101320.3012268808
101318.5894429101
101318.5782564826
101319.4505581651
101316.6164895121
101312.0287115905
101310.2898091738
101310.4504082949
101315.9144758504
101314.4282193364
101313.5928887408
101313.1988691861
101314.5065890659
101314.0130676864
101313.4485638049
101309.7957951838
101315.1060376696
101318.4895038712
101319.9966029675
101313.5259257755
101318.3801447122
101317.7396430767
101322.3230472965
101321.7122654732
101318.3160409324
101318.4096293826
101316.7976641078
101316.2414639783
101312.7300119347
101314.1365232738
101315.1256236865
101323.6732879088
101327.5532644501
101325.2138126482
101323.9292317138
101323.4444435117
101322.0449969456
101319.9132461762
101316.6492624571
101314.683751288
101316.6362770331
101319.5606120086
101317.067237553
101315.7693930716
101317.9752422925
101321.1770690546
101322.2318164205
101317.5316467597
101315.4764214993
101311.8863037912
101310.1632105648
101306.834058646
101304.6371955119
101307.7176745372
101312.3073582262
101316.0109050588
101311.5079919909
101312.3057874898
101309.7185915123
101311.4530427933
101309.1332502004
101308.4157575119
101309.2111973334
101315.9714685774
101320.3099657068
101316.2397954315
101310.1319280518
101311.2723035491
101314.7701806797
101318.1354876415
101317.6203314553
101316.2058659971
101313.7058928969
101313.1005842537
101309.2506441774
101303.4533165435
101302.1559053236
101302.1758931155
101305.4854097631
101303.8982835562
101301.6491832919
101301.637421436
101301.2168132864
101298.8380561616
101297.0091996804
101297.2966517596
101301.5314070735
101306.1191506154
101304.1440625665
101297.8410466757
101298.7718413034
101299.5664574096
101303.9319352913
101304.8607916559
101303.5235361686
101302.4687959837
101302.9883407711
101301.7273936961
101299.1831339067
101298.009297699
101296.9581647138
101301.9819129095
101304.7068995304
101302.3939764318
101302.603734279
101301.7105521237
101300.2048975627
101298.8714575066
101297.2084729882
101301.7930756967
101306.0808281285
101305.875412977
101300.3217301034
101298.3617566532
101300.3149996799
101302.4108250029
101302.2751241459
101301.4786393522
101299.4559120956
101297.5866120347
101298.7398869293
101295.2715098937
101298.3913299499
101295.1835136179
101304.0720564056
101307.9812571644
101305.7733918262
101300.9687915384
101299.232415926
101295.3749393554
101293.3897768347
101291.3236843325
101293.9698828911
101295.5958477718
101298.8327981582
101295.0299439487
101290.7174392223
101291.1678397085
101294.9009770285
101297.3239458852
101297.3351856244
101297.2137757584
101297.4109503267
101296.3295441821
101293.8886615411
101291.2818554587
101289.9713262036
101295.3031001737
101301.356566954
101298.8180163322
101293.6393587822
101292.4284103618
101294.9468011255
101296.3885390864
101297.7744929872
101295.3172549636
101293.4641758163
101293.2875175886
101289.9703491719
101283.046347518
101282.3905962596
101284.379872431
101288.1189979847
101291.1960467278
101286.9360224447
101285.9111045843
101284.1094713275
101284.7122799724
101281.6957524176
101285.4274430449
101284.5277273126
101292.8757170794
101290.8570728978
101285.9922806777
101280.7742205531
101281.2761913653
101281.7959079093
101284.6221719858
101286.7547195878
101285.3175933876
101290.341824271
101294.0439520823
101291.2830726439
101286.3503458335
101287.3116611168
101284.2655507889
101288.2696667564
101285.8017368737
101285.1628835368
101280.512681593
101282.6745713593
101279.5864776134
101281.6221833294
101278.2865475883
101284.7640575402
101286.7315720239
101287.9517636519
101283.5212017665
101285.7668457937
101285.3985703423
101286.9636963804
101287.1958222247
101280.8748832152
101282.4366699312
101283.540483464
101281.8828877204
101277.6359875503
101281.6823784127
101279.501786947
101287.9371504887
101288.9413197212
101284.8108846528
101280.7465882903
101280.1347139889
101277.517904015
101278.7288114679
101275.7436425004
101277.7088167485
101279.929652091
101281.1341946835
101275.6678749945
101274.8509942634
101274.2957342481
101276.9363380923
101280.0588144491
101278.4770726878
101278.4899661303
101282.0642128493
101282.3407374262
101280.5300936858
101280.7791362146
101274.6877981921
101280.2790199361
101281.59822503
101279.5744550808
101278.2733073149
101280.4414426259
101279.702395303
101279.1615654444
101275.2911239362
101274.8380629974
101278.2843387828
101281.2707365362
101275.980801412
101272.7598739203
101272.2914297251
101275.0587312144
101279.7466170735
101279.2510176715
101276.6350524088
101273.6976958452
101276.2567402675
101273.82059464
101274.7255936978
101270.2698751005
101276.5991375548
101279.4886881256
101280.3926099672
101274.6479812882
101276.8708110786
101273.2898420019
101273.6855198576
101267.9775587043
101268.7236845734
101266.214626379
101272.7488803984
101271.0818667924
101266.1592745086
101265.8503264838
101267.3198197771
101272.3863240719
101272.7310150772
101273.2025546365
101272.4068002019
101274.0622970823
101275.3575979902
101272.7868020498
101271.0631599096
101272.4406040725
101277.9084391396
101278.4891808703
101274.8687036319
101272.7337434448
101275.5183391776
101273.7836888813
101273.1794293776
101273.1906567299
101268.8750965042
101272.5393798022
101271.9880304914
101268.5767835181
101269.8065797648
101271.3030589732
101275.6054584848
101277.4925313889
101276.7807033054
101272.6460635021
101271.3194963249
101267.0963313684
101263.1240173754
101259.5291133696
101259.6488339699
101264.165648952
101267.5816824074
101270.0859654815
101266.7693128038
101265.1411848348
101262.5736264549
101261.4330430309
101261.8232641211
101256.4530509885
101258.9518339682
101260.5702161017
101257.9123521636
101254.2322550203
101256.7384981941
101252.6871008862
101257.8184878056
101261.6241202579
101264.0960423602
101262.8426031823
101264.0872089953
101265.1317013863
101264.062900088
101260.4713528885
101258.9131150728
101259.1070500197
101259.1922698179
101257.4678871769
101255.8724415658
101257.9172703799
101259.9045624352
101260.6331099446
101258.6519660078
101257.9433786671
101259.1640645315
101256.7444301636
101256.0960578954
101256.1776955921
101256.6481878022
101258.3022257764
101262.1673063177
101258.2145636485
101253.2427573296
101250.4933464356
101252.1067057569
101248.829809218
101253.9638029495
101252.992906664
101260.9913320606
101263.2017929338
101262.2066500351
101260.0554457157
101260.3549032328
101261.9054701475
101258.5874432289
101252.658753276
101248.452865307
101249.1249436317
101253.5852043018
101260.5314173953
101260.4522540095
101255.6402431858
101255.1924950322
101257.5423112
101261.9288780519
101265.4598751629
101263.5279896781
101261.8279105266
101255.7828499394
101254.6550182895
101249.2426273035
101254.441980591
101255.2255426101
101255.5782055813
101252.2231510888
101252.6813778106
101250.3007881887
101256.0871857615
101256.0502685499
101252.695197308
101253.3839888651
101253.6573459661
101251.9550510205
101249.2035611302
101246.7042362702
101250.1114340032
101252.1166858125
101259.6594765073
101259.4047150336
101253.026251306
101245.3958741342
101242.470322468
101236.2348741617
101239.6589190859
101242.8323464626
101246.4668596674
101244.840727003
101244.7151758651
101246.7057748997
101249.9052036643
101253.5517218641
101253.5153623304
101245.7336912534
101235.2789383658
101230.5562652994
101227.5034391303
101233.4844730415
101238.7387908478
101238.4866331238
101236.5637791386
101240.5765260114
101244.6651739976
101250.3892948489
101255.6385750164
101250.9949978534
101241.3964353094
101239.2929981935
101234.5850087175
101232.8087250869
101234.9015629787
101233.0270481757
101230.6667728762
101232.7640852758
101238.7356603019
101244.0243763193
101251.9180224824
101251.9308956956
101248.2335513405
101244.0818439432
101242.6387288956
101239.8694517981
101238.2861248464
101233.9570837347
101228.3191437743
101224.4095979525
101227.71360858
101229.8658390027
101237.026943942
101237.9032774463
101237.1605261588
101234.3631477846
101231.3400098798
101227.7314545453
101223.6459899147
101219.6792176447
101214.929605118
101217.342859906
101217.965934374
101218.9102922819
101219.3039129724
101218.8565777008
101219.9951171501
101217.3032799575
101216.3583841739
101217.1682406021
101215.2151660281
101216.3430649456
101213.6056481896
101212.7768502187
101212.1751166766
101214.2839882136
101215.4579719128
101214.0817870549
101211.4018374922
101206.1626116597
101210.8422201225
101210.9453835173
101209.4174811108
101204.1200973614
101202.4576641977
101204.525283903
101207.7616444891
101207.1417899245
101202.2295779555
101197.757632855
101199.5820631975
101201.1499094673
101197.0812635715
101195.4831127698
101192.6821920561
101195.7755478516
101198.1824610892
101197.2553905709
101196.1676201724
101193.9827495782
101191.7931874292
101189.8488105521
101187.0268018866
101186.7059030082
101185.9452734455
101187.3283097031
101189.751212181
101191.8152509544
101189.6133695024
101188.1850671655
101186.6057213352
101184.1874953697
101182.1977682534
101179.1812197539
101176.1550896537
101177.9464637251
101182.7691838444
101186.5158947647
101185.4572676383
101183.0004669216
101179.170445772
101176.398214989
101172.9686014425
101169.9559018711
101170.5511784226
101171.736037041
101171.3182795904
101177.5281114516
101178.5324315756
101181.5320728757
101176.1925285568
101170.4275844999
101166.9026440207
101163.7772705805
101164.76494066
101162.8113526726
101161.390655704
101162.8452835421
101167.9767480229
101170.0924168682
101171.5606228475
101164.0532187388
101162.8661931266
101160.2334414559
101163.6037888227
101160.7391807987
101153.6526620266
101149.4984950898
101149.7334403715
101156.1805871279
101159.837117552
101159.9486250653
101157.305912635
101154.5271175359
101155.9058315513
101155.7227470364
101153.4609757873
101148.703922134
101142.7684284016
101141.9518129411
101144.9147248998
101147.0878389016
101146.7531354342
101142.6783347993
101139.89620283
101140.2212536631
101140.2034917351
101139.3761094069
101136.4233898725
101131.9264257195
101131.7204664449
101130.9460980403
101132.369747744
101130.0055657752
101125.1230661921
101119.8470215275
101118.3160311219
101119.3705505733
101118.0617481841
101116.6688907326
101115.2807709404
101116.9985060095
101120.8105214872
101118.4459828917
101111.537975552
101110.3280378115
101105.674078423
101108.270065942
101109.0170251576
101105.9635068108
101099.7140043653
101100.0167368743
101102.3247215588
101105.1352389227
101105.2853295786
101097.4824891706
101096.5118075924
101095.3316860855
101098.7807542201
101098.6379654085
101095.5234767394
101088.7987671525
101087.0274952951
101085.0597910345
101089.3674404418
101089.2013814242
101089.4187467624
101083.3070389122
101087.4502275626
101090.4761151247
101088.8054141159
101084.799760944
101078.6305808627
101076.2168787233
101076.6024702153
101076.1671029297
101077.0288839274
101075.7941513405
101074.3278475903
101073.8347372398
101078.2618492816
101075.4417931748
101071.1612304604
101068.6433461315
101067.9393007417
101068.0249805942
101066.3659762313
101062.3979299818
101061.1877461749
101059.6370843985
101062.1055536957
101060.7841620728
101059.3308529207
101051.3866444358
101055.6961159655
101060.4599872058
101063.2314345571
101057.4540387937
101053.6390014841
101048.9818358942
101047.9406272255
101046.0099606803
101041.5097409487
101039.2952868588
101039.4514459297
101042.0418711016
101042.2270408405
101043.4659575107
101045.0472690341
101040.2194435757
101035.1900254494
101029.1562401056
101030.1266385211
101027.4870418876
101022.0291217247
101019.9885868823
101020.1239797884
101023.1255387049
101025.8635511597
101021.27412324
101017.5099458042
101014.101350377
101018.3508855115
101019.8771422978
101014.9074374461
101005.6177031417
101001.2140205363
100999.458566848
101007.0942743807
101004.3032260826
101004.6672327556
100996.8912941476
101000.896997045
101001.833149634
101000.0234422548
100991.4373601946
100986.8884863994
100983.9961806042
100986.0290107209
100987.0426302366
100984.9405649177
100981.7384991919
100980.4466379066
100985.0353289089
100982.780580528
100977.8419953094
100970.583952054
100964.5910201449
100965.9083966253
100969.3536658038
100969.9688927884
100966.767459587
100965.1732087644
100966.3316947202
100965.7523025256
100966.4971724185
100961.5332627986
100957.0139785143
100955.1927685943
100954.4565602069
100955.2840248173
100952.7574624792
100953.4340113558
100951.6851983474
100954.8335594162
100953.8363502521
100951.870708969
100948.0496349467
100944.9897761557
100944.6888950161
100945.8319771944
100940.6882872647
100936.0539977039
100934.377571096
100934.3320426784
100934.8004999827
100932.6279087886
100927.6809336175
100927.2037684847
100924.1474178572
100923.8183800279
100924.4492089998
100923.3209377194
100922.6429441059
100926.1404015681
100925.4686625352
100921.5547023874
100921.6661671464
100913.6892772736
100911.4329249833
100910.5545852848
100906.6292961683
100908.77439514
100911.0860195449
100910.6630791511
100912.5263135513
100907.6275562024
100906.4282668327
100907.521788599
100904.2251290726
100898.5751773555
100894.5728422382
100892.2399426098
100891.5924927014
100892.5391191685
100890.9005566955
100889.4665558871
100889.5793848036
100890.0919368389
100890.5804270914
100888.7804004443
100882.4746451048
100879.2065412429
100878.630035343
100873.9845899347
100871.2860912864
100869.7367462702
100869.6061152013
100875.2442951124
100875.1669363286
100870.6765037513
100866.7331997614
100860.9648133709
100861.5216873285
100857.9658580789
100856.13926921
100851.5456479677
100853.2894619958
100856.182448967
100857.0872137438
100855.1661764642
100848.505796878
100846.855937429
100844.9440879248
100842.1783856763
100839.101984605
100837.4509510197
100835.9424534125
100840.1594130912
100842.1157979327
100837.5489957598
100834.0651948844
100828.6730141244
100830.1459240753
100832.2227265477
100829.4475585614
100822.1126443349
100818.863403309
100819.0172220693
100821.5059271185
100822.1704466758
100818.7558039452
100815.7068070478
100815.0905178849
100813.288632765
100811.6467609522
100807.4422448585
100804.82522783
100801.6260938677
100803.3297902479
100800.8803871511
100798.6465718024
100797.7460125857
100795.3154126776
100796.2455636283
100795.4303076275
100789.2154693196
100787.7694204381
100788.233444352
100785.344739439
100785.3350566074
100779.7372960239
100774.6064740057
100777.5902507762
100776.4056552102
100777.372437079
100774.8667718438
100769.4193225572
100768.6423552408
100768.6752806255
100766.8219063057
100760.5932944648
100757.4106424627
100757.9349655301
100761.5015469525
100764.4931098605
100757.8453276715
100753.5061537503
100750.0138058054
100748.8216693922
100748.111272006
100742.7773942122
100742.5266986894
100742.8304975446
100744.9130400332
100745.984736991
100742.2909786055
100742.4279279228
100735.4512586368
100733.860443405
100729.6909550717
100725.0422938466
100726.9150179932
100723.8335530164
100728.1911492699
100726.832843205
100726.3899912764
100726.0188740446
100721.4267307143
100720.5651758987
100716.2232688742
100714.1515483475
100708.7803224836
100706.5777588171
100705.1590012098
100705.2016866433
100704.0711941109
100703.4519577039
100701.0490745318
100699.4274429071
100697.9391842623
100691.7776573142
100689.4030365431
100685.1871489764
100683.9692354483
100683.0329095655
100682.4793434256
100681.2982512749
100679.5979295755
100676.7729286945
100674.7882272206
100669.9716945654
100669.2866924186
100667.4279654128
100664.7967671402
100664.4836590542
100661.2898013998
100663.0703557026
100662.8291806077
100660.2513351928
100656.1225460613
100654.3934696426
100652.7680635601
100652.7424577335
100653.0753175181
100648.7371052326
100648.6640032955
100647.5543638084
100648.6014972834
100649.6595400958
100646.8847268137
100646.2622533152
100644.3664288492
100644.0953983993
100639.583247161
100634.644561241
100631.3488481012
100627.8515550554
100628.8013136483
100627.8271535779
100625.470370264
100626.5794156011
100625.9314300564
100626.4179276934
100623.9034799802
100617.4122198497
100612.4373861959
100607.8181692036
100605.5755793161
100603.9935798025
100601.8786094988
100600.3908852443
100600.8198545861
100599.3561063543
100597.7472713679
100595.6747750099
100589.7230447187
100589.0707365128
100587.5988262985
100585.5518926526
100580.6574618359
100578.3148998615
100577.5522946711
100577.8746381544
100578.7435494606
100571.1862760235
100568.9416058949
)
;

boundaryField
{
    inlet
    {
        type            calculated;
        value           uniform 101324.9999540543;
    }
    outlet
    {
        type            calculated;
        value           uniform 100571.288433992;
    }
    frontAndBack
    {
        type            empty;
    }
}


// ************************************************************************* //
