/*--------------------------------*- C++ -*----------------------------------*\
| =========                 |                                                 |
| \\      /  F ield         | OpenFOAM: The Open Source CFD Toolbox           |
|  \\    /   O peration     | Version:  v2012                                 |
|   \\  /    A nd           | Website:  www.openfoam.com                      |
|    \\/     M anipulation  |                                                 |
\*---------------------------------------------------------------------------*/
FoamFile
{
    version     2.0;
    format      ascii;
    class       volScalarField;
    location    "0.018";
    object      rho;
}
// * * * * * * * * * * * * * * * * * * * * * * * * * * * * * * * * * * * * * //

dimensions      [1 -3 0 0 0 0 0];


internalField   nonuniform List<scalar> 
1000
(
1.174773953925594
1.17109431382822
1.15871463745867
1.141438874367226
1.122370647776229
1.112422536113355
1.120943428511906
1.149744473556563
1.196739979354575
1.236627808558941
1.255506686981869
1.24925528222328
1.22197849752121
1.187927510835325
1.152843393407467
1.133156892422036
1.126739335431114
1.131847725844291
1.14759110464988
1.163030261618901
1.183422848671921
1.1891147665269
1.181390641116137
1.172651903213233
1.1651986353373
1.167079115507133
1.181815216760118
1.198878344337862
1.222421557999025
1.229557747484363
1.213456823408971
1.175912138184444
1.148516847254294
1.124696593192678
1.116654445186763
1.125059878386963
1.151406324783795
1.185238205755697
1.223973962903269
1.243272538794372
1.23698547828495
1.210984330364853
1.184799922679454
1.156169036610056
1.143522025301777
1.142620579064236
1.15483724422721
1.169962065635798
1.192841883856685
1.201014990754446
1.189985726768067
1.164610802671689
1.145296513865828
1.131560050014642
1.133258628877647
1.149980294314018
1.178828406094727
1.213676500391446
1.239382496637684
1.240690049896891
1.2182922320612
1.184843656390299
1.154858977221987
1.135094501514855
1.130462313568279
1.137430039853978
1.153136696362398
1.163439587773166
1.18222413663652
1.190890302771126
1.187164698435959
1.180640380281701
1.176579722871917
1.177791739992522
1.191467514129572
1.206300131725657
1.215763460446404
1.209421661450356
1.18279497823312
1.143484874122893
1.115959302788535
1.105559746138156
1.117886809892017
1.148387607428056
1.189218047875712
1.223925190605699
1.241191332967302
1.240894666287567
1.224100180262017
1.201158356858733
1.176808286144719
1.161095947341378
1.158063838578569
1.162096390048887
1.171214383245676
1.174531972877807
1.1653926542349
1.149884412095987
1.132058980607505
1.122003177499545
1.128835637234259
1.152265022507916
1.193514807440027
1.239997738740926
1.268359812829595
1.266547292181955
1.242442889187666
1.203276605678371
1.160814540675749
1.130445681861046
1.117686088148525
1.118295888798133
1.132983698192754
1.157016417979225
1.207434795234748
1.24190123771839
1.244945876221861
1.22695247513352
1.213739146903086
1.200911489197735
1.197003300193509
1.195193039295682
1.190019787467005
1.174296308701409
1.143391252653034
1.114142307367052
1.093059734580003
1.095421000416483
1.133950915418674
1.178048679620046
1.213058315481174
1.227397517966201
1.228053270837461
1.21369895140236
1.191310673451198
1.162247123949254
1.136807813309629
1.123590119828383
1.135040073393747
1.172995810703592
1.202406203027345
1.219315447859948
1.21080654585535
1.181618539132163
1.145595309431908
1.115939812138921
1.106970440889574
1.123660472939298
1.16583502771408
1.210656654844965
1.242473170470306
1.258349383033166
1.255840322197392
1.232850255852778
1.200587942564888
1.166973791336335
1.145565580867933
1.131376118805202
1.128600278037102
1.130204453225158
1.136151240826567
1.140532069895967
1.149828340956652
1.153374987776958
1.14920519770189
1.145587747930317
1.147270160903772
1.15855816176229
1.184117993645572
1.207557745345081
1.222596321958103
1.213476732466181
1.176850844973559
1.14086243939418
1.113953672146109
1.108043169088118
1.12365046504953
1.158422232417285
1.203969174459591
1.237568671712325
1.250734940432792
1.243493829054656
1.224730800770345
1.207165157246828
1.194348283533731
1.180197474343245
1.168807045636719
1.154850549138561
1.134718095015342
1.122576986287084
1.11086699605712
1.102992371501928
1.105411424923568
1.124863363086534
1.160218280106365
1.216047707436997
1.255843973279283
1.280727401869313
1.276247947517535
1.246874584915915
1.203168638417476
1.156393043483928
1.120150215876082
1.103109295042148
1.107648093527792
1.13200749068312
1.166246123827901
1.215579269021743
1.236643039583797
1.226232616976451
1.203478189185556
1.179915109682179
1.16235396794099
1.156573520092969
1.15883753645564
1.166197152167435
1.165545558513693
1.166336044362534
1.151069863916032
1.127692936540673
1.117579238323144
1.108634648114171
1.113484456866527
1.138242222708728
1.176833235613688
1.230178183531262
1.259985136952916
1.267350876561107
1.261156905392171
1.242210325379088
1.223462918239179
1.194276283295289
1.157083056549652
1.116726046437416
1.087169707444916
1.073040785295378
1.086370505590919
1.11365929232515
1.148404424270358
1.177613129956568
1.193721416062587
1.198107153667649
1.202208334739176
1.208062760336461
1.211825841036893
1.218285970822127
1.208069108194397
1.173729401352398
1.145899922869378
1.129291614988927
1.125725580183564
1.140372583614722
1.165558735982815
1.19311619356892
1.20908109759572
1.203634289265842
1.184600200078524
1.165251281156523
1.148822093651438
1.145624593313052
1.15708433437808
1.175703517775355
1.204007681145845
1.218625049053749
1.206570297749678
1.172893446934112
1.152671594311231
1.130644930967032
1.122975063053532
1.126861123704364
1.144918656192658
1.176868717217602
1.21478939008754
1.250376281201021
1.263763664770304
1.252127898658343
1.221211731951299
1.181607207762517
1.147015691290656
1.125112054480133
1.116610397059667
1.118519501916262
1.130335050026894
1.141822945613916
1.150841738689512
1.149832064074727
1.147162792828354
1.14851013593056
1.162728216577987
1.188583503588467
1.224118538907804
1.251074837203133
1.253987724795035
1.227528724170274
1.182345227154286
1.147215466128965
1.122741132374714
1.118165611842775
1.129294860120059
1.155476821737774
1.17986073478461
1.209385693576005
1.218996123611522
1.207593380524003
1.182191774789545
1.161671192632328
1.149341779445911
1.15611652644627
1.169307619410301
1.187256795857469
1.19335832637679
1.181110029163767
1.158491578733864
1.136944691502275
1.121371373513976
1.119916865097347
1.13721357661137
1.171476712876878
1.217742025576714
1.25375582201208
1.269185032772842
1.261560240054919
1.228587952246954
1.184342746354085
1.146935383477797
1.126671976118182
1.122125916207372
1.131622895481325
1.143186204710585
1.162135046375444
1.170785385645976
1.163335929287213
1.151164651491115
1.137072473700801
1.130518676525552
1.13777415696764
1.161915712797401
1.19537794485465
1.234969622998983
1.257189807175227
1.254690781835885
1.223736134915041
1.180457582537021
1.144980408533079
1.123796363525939
1.119415987774138
1.127156333042916
1.144425545454366
1.160742894671156
1.181406855730874
1.191539256768974
1.18736189115629
1.183779818863586
1.186652847391728
1.191992233531682
1.199574782536416
1.196033530164999
1.173966839422997
1.150985412107476
1.125382008479657
1.111226823715232
1.111432486873231
1.132213484895198
1.170315676802718
1.222778650289669
1.257957762636724
1.279813903865602
1.278169524137263
1.254188761837119
1.217300314227009
1.174802015878542
1.13964027491065
1.117319751878635
1.110993019194187
1.11602561766726
1.11701950470045
1.136585581835148
1.164844414071768
1.177524603696215
1.185726418563432
1.180824287865796
1.174487047497713
1.166112928421316
1.163137921780267
1.169968371543674
1.17040170952787
1.18524528589865
1.190028966875372
1.176562760167214
1.157725703127404
1.151568558458428
1.146893973318224
1.151345950585027
1.160916242352047
1.174964427984574
1.180912013925168
1.189501752084071
1.184155928212619
1.168774979563123
1.160519757480944
1.155478886124588
1.163112311221571
1.177359153436542
1.189447762436915
1.185528303807744
1.169018144170376
1.161712547623819
1.145131566577541
1.134684171908149
1.130590438966735
1.139947449767118
1.165698258329276
1.202381018370851
1.247051521500885
1.26711715443597
1.258283550443883
1.221233637230417
1.18212942764562
1.147098901154997
1.129531029717979
1.125511573726184
1.132110501319928
1.132940264293714
1.144773489585652
1.156728135209985
1.160259609950931
1.16497492400336
1.157418736309649
1.151460070043511
1.15345752706484
1.17213389506782
1.196666883994007
1.240847726078361
1.257355728043848
1.24037565669842
1.203689500625233
1.184248599468235
1.168565563637631
1.162658286836981
1.156792880633097
1.148411238385946
1.138707816201395
1.126574335379433
1.127331644408696
1.155653922891686
1.201818303235609
1.230161523283133
1.245682743863662
1.239308163344059
1.212572841865456
1.178180560310221
1.146551484956386
1.119876566125731
1.104206823563612
1.09929814243033
1.105198036154566
1.127611338487015
1.16541816252163
1.226698184156942
1.269210442099433
1.277900547436145
1.260369956934
1.223255770806124
1.18000618438956
1.154627098348465
1.137854082201659
1.125866652405635
1.110862061403742
1.096827189414922
1.087832259834785
1.098086568325331
1.141158696312939
1.182209927495687
1.205737928956079
1.213236344645277
1.206936891596692
1.19798916566526
1.186982036047145
1.174722217264063
1.143481536548173
1.122560029699974
1.110861873048912
1.123033713791053
1.145631690131851
1.176973670849224
1.188817488837643
1.194241804736029
1.192977824496348
1.189137480082574
1.184311198497553
1.176438181519745
1.159518667237291
1.132278478918328
1.109952980084742
1.105076896963898
1.125102286853116
1.147216879656263
1.173225800902409
1.181786939608879
1.187698951984032
1.187778146305742
1.183142479975568
1.174304298266112
1.162535954662181
1.155628097140955
1.163144452179663
1.172542744989261
1.194882966818597
1.193652294697745
1.170128806690967
1.15830452545821
1.154056298673726
1.162341532838281
1.177015366832353
1.189253344500524
1.196421096986558
1.199064947416906
1.196463641736743
1.190477257540495
1.168988326309707
1.140604732061797
1.101937219144688
1.092351706108663
1.115959246403964
1.144073338093642
1.165759404322917
1.172703837922045
1.174750362219531
1.172299943808677
1.172789110945222
1.182369748725531
1.18326962189025
1.194799604850576
1.178765338850426
1.137107298944951
1.111804068180809
1.096710997864895
1.095302059871123
1.111344869579295
1.14619479988066
1.188215040723936
1.235694802429828
1.268098825152251
1.271863535756778
1.247631747789267
1.204170624229202
1.141878914676173
1.10024449050364
1.076438781406455
1.078377827368485
1.103191085736241
1.146259476463633
1.197768470299267
1.239619998177858
1.26061681417419
1.257892247305995
1.221453967347681
1.164364951387387
1.117548106466537
1.089504103485428
1.078426378682585
1.0890512784935
1.122286132414755
1.166332236909752
1.218165895231241
1.24822480803192
1.249247707830706
1.214979128451868
1.163668384873141
1.127388623478148
1.102447581192236
1.096646609328488
1.106066155386984
1.134323358432813
1.167468440095387
1.219068261468176
1.241405694740967
1.225061100925348
1.181335885079641
1.150794708154508
1.125709346428695
1.117782109396033
1.119397648435044
1.13298448344154
1.15820979712446
1.195833074989753
1.223252498178156
1.217150531305031
1.184061054418658
1.16775139152127
1.144441165769789
1.135045290129143
1.132412916521676
1.136345750919307
1.148385229605603
1.162269374768113
1.186954483028196
1.195480588789307
1.182938747652442
1.181728524679379
1.175695844120511
1.175998005905159
1.173634723906636
1.166155730129678
1.158935958281915
1.13451417792443
1.120063478861511
1.119469135209318
1.145843885899223
1.172370975876332
1.200187036289475
1.213297266406165
1.217704776708268
1.205037176549061
1.180979768090446
1.150222403450169
1.12216715842626
1.105597117094867
1.104305437277577
1.106422414895443
1.131206976880258
1.166895363798625
1.181098364152619
1.193095197877649
1.190881046627991
1.192901519687538
1.192278967886859
1.186725163931898
1.162505142198996
1.1250623982876
1.086932523600591
1.066398960802044
1.079291566130651
1.122049168193844
1.168729645498315
1.205579199880399
1.224309237881589
1.224986801842975
1.202977396155626
1.166434384856546
1.121078903323067
1.091021821376134
1.077560359530861
1.089556154401597
1.119652195216826
1.157905307905044
1.189408200649064
1.202895832491302
1.190316065098254
1.160868075704238
1.124181269645778
1.111931837577051
1.122658815574927
1.149570268320056
1.1743164717199
1.193771421982042
1.192805309091352
1.176696665712496
1.147938887106268
1.125032764070034
1.115798350291225
1.128549603175446
1.152598070030247
1.172559702839715
1.171109774365011
1.153423648918897
1.12988347796797
1.110849382746736
1.108196091936752
1.125307114691327
1.155579780456469
1.184566102014065
1.202255226609978
1.199887298571735
1.169192509870584
1.122726045559263
1.087540264943629
1.081296934961959
1.104979581898803
1.146053973502339
1.190359260862251
1.215430368074844
1.222823979261898
1.214255585986941
1.186310201195978
1.142646923639951
1.094901283724363
1.06596847474037
1.071148550495113
1.106826214442115
1.155316166352867
1.200965611080671
1.228738964746068
1.233884641582752
1.216985274064399
1.182655598254517
1.132295825510773
1.087926902569739
1.062098880477903
1.061106706815152
1.089513026449466
1.135762488619031
1.191151169648024
1.232841783752978
1.242253030943307
1.215782887758434
1.172097663220506
1.127491883362514
1.105868941453529
1.095597052113473
1.096950090644701
1.104815084937405
1.121984366793089
1.144976222356498
1.178987658770403
1.197384649527135
1.177188854896263
1.133292535847299
1.114152457933523
1.099091618520698
1.098435565295128
1.105689145910498
1.121665192259822
1.153060167149377
1.179730592737049
1.208200351850775
1.210588812123288
1.173357280446224
1.117312447906871
1.087226188628442
1.075082553174361
1.088310398976806
1.118414581628926
1.159515516986914
1.196450976163238
1.222116141095191
1.225518703173569
1.202933582253325
1.163180078694896
1.112255379313243
1.077436412367717
1.078178038781763
1.10212881527783
1.141660545243389
1.179351990291475
1.206227165068944
1.210414733335339
1.198792043307398
1.167253934321678
1.130630069557776
1.093238442289193
1.087540256717531
1.1080812333729
1.141677365800167
1.173091249451921
1.193286920771572
1.197982416684318
1.188874032934491
1.167887413678354
1.140747005133216
1.113611942436961
1.098230062889804
1.103522331063929
1.117640315271886
1.133048145243424
1.135958440299407
1.132222520324658
1.127682852655892
1.131938386052561
1.149449030331611
1.16735935304583
1.188115472225268
1.190022382051109
1.165079187031171
1.123833263765975
1.098420982665656
1.082606386743229
1.081786524877864
1.096250210805508
1.128574022945971
1.171755833776768
1.209136390545072
1.22976936769595
1.231529582829159
1.203018136736954
1.157222558540857
1.11264594237487
1.087714035862971
1.078304724520241
1.093730924071231
1.129388911078676
1.167888422225881
1.201775683794248
1.209617809309421
1.182935797346519
1.142658579870993
1.115990606968579
1.100431375362286
1.101433483589997
1.111063454058801
1.131355038834079
1.152124238551195
1.175195917180704
1.182140273863451
1.159443968421612
1.120438617362941
1.104821863733855
1.092274405491753
1.094572176634574
1.108509207715054
1.135864983012012
1.172863880890137
1.202363673957965
1.218820737152417
1.213279773162178
1.177546483059218
1.122542726714688
1.089161800311574
1.080724783601543
1.09348595429925
1.120129240567601
1.153384913318381
1.184061005703785
1.206105506595424
1.206418549251929
1.192054250702798
1.167058149944798
1.130315712403213
1.10348241451039
1.104766402528829
1.12033353719316
1.140809972761228
1.16090788912197
1.178888391747689
1.182842455558881
1.179002563928838
1.16609345562498
1.153486325089265
1.140727495543657
1.137386250608281
1.144487734269195
1.151449565709871
1.15985956668906
1.16286591644765
1.158002008943839
1.145941247012622
1.133076397542091
1.124571545404977
1.129352487546334
1.143600386357153
1.160957722331024
1.172944050977757
1.175873837946928
1.163657263444663
1.143202225736963
1.121426877683908
1.108653144021223
1.108254310849286
1.122430488266759
1.145225823360925
1.169886014183654
1.176557595811653
1.163523263593385
1.146738583596926
1.129113729448555
1.122386198676863
1.125131353310704
1.135581157817675
1.147474268535027
1.157101084311918
1.156912650355055
1.143924967361449
1.129032649599899
1.122405039045281
1.127854796550386
1.14631373574464
1.165048348642353
1.175721041452271
1.17385809918386
1.15621757991926
1.135815878814216
1.116224700179098
1.110451565334814
1.117726455337645
1.125286028062129
1.146262233794596
1.15773455539104
1.154617653169086
1.152918666152563
1.144322252445795
1.135399223305912
1.129461556174662
1.119585589509453
1.11442058992559
1.115008922742595
1.123313195943641
1.134201661971878
1.150931142863909
1.156980190087052
1.160436793508026
1.160066012039602
1.151966109352162
1.134785095740883
1.11458886403245
1.100992935115152
1.102226929136578
1.113295439346628
1.124159221680272
1.132937269060833
1.143036264662981
1.152700021550329
1.161601176830094
1.162889957437265
1.171543708123039
1.16191288130442
1.132618821086918
1.109047673542645
1.099792408181337
1.093220966641371
1.094447587789121
1.103443451876
1.122501991474955
1.154622855964673
1.180014899882482
1.200645778554793
1.207705054119299
1.187992620516602
1.147562184970154
1.116125060616013
1.103013131755356
1.099407561090711
1.106263789072644
1.124716960258123
1.15395979787257
1.171215312049299
1.188751325996552
1.191618955690444
1.172838847098507
1.142218734979543
1.127299303049361
1.11564398689177
1.11376629631853
1.119231739329425
1.129822344639909
1.136583850677885
1.149158466469709
1.156517005798579
1.155048925862351
1.146196772238637
1.136234767476665
1.122681804571252
1.114976935238315
1.114224237824335
1.12277948762561
1.136177320643423
1.152153351008402
1.159065569536501
1.148432638205348
1.121877051887342
1.098115612519644
1.084365318650365
1.083525037480468
1.095878162056845
1.118403299913043
1.147269335790163
1.174594835600173
1.187776462897699
1.186005393295711
1.168190590246139
1.137999988273656
1.098541749069184
1.081427944833029
1.088959916251025
1.108535999434968
1.132397775478369
1.155873089059186
1.179624421192583
1.185325128686923
1.180904038027661
1.16238161141429
1.137668235453639
1.103753039001029
1.091984610326585
1.098641817595302
1.118392326175514
1.144369304299723
1.169228684705053
1.181727697478189
1.178954134684137
1.159881754998164
1.131066288026874
1.101466487450931
1.088412288977889
1.09380281737514
1.112456270142996
1.133750818682917
1.147481482846892
1.152740380504153
1.138896278517122
1.098174558834548
)
;

boundaryField
{
    inlet
    {
        type            calculated;
        value           uniform 1.176411716172193;
    }
    outlet
    {
        type            calculated;
        value           uniform 1.071567159307758;
    }
    frontAndBack
    {
        type            empty;
    }
}


// ************************************************************************* //
