/*--------------------------------*- C++ -*----------------------------------*\
| =========                 |                                                 |
| \\      /  F ield         | OpenFOAM: The Open Source CFD Toolbox           |
|  \\    /   O peration     | Version:  v2012                                 |
|   \\  /    A nd           | Website:  www.openfoam.com                      |
|    \\/     M anipulation  |                                                 |
\*---------------------------------------------------------------------------*/
FoamFile
{
    version     2.0;
    format      ascii;
    class       volScalarField;
    location    "0.018";
    object      T;
}
// * * * * * * * * * * * * * * * * * * * * * * * * * * * * * * * * * * * * * //

dimensions      [0 0 0 1 0 0 0];


internalField   nonuniform List<scalar> 
1000
(
299.8287754294856
299.424459028588
298.1322441577432
296.3366349705947
294.336806198692
293.2846785828293
294.1830188478781
297.1828680483731
301.9822689501352
305.9622316949441
307.8232374859797
307.2159130908311
304.515555222047
301.0863678165118
297.487961763838
295.4397455941534
294.7648220522003
295.2991384069917
296.9377914894511
298.5326738850029
300.61070212799
301.1852933799184
300.4013418005619
299.5136368152498
298.7518006999093
298.9472973314417
300.4554424130597
302.18391813394
304.541460629542
305.2502883126655
303.6475347479698
299.8643602439099
297.0428958085436
294.5593954419421
293.7145829464051
294.6037237832106
297.3495000672143
300.8150586951966
304.70623777968
306.6192640854038
306.0000629865398
303.4107637393805
300.7666723329644
297.829766171561
296.5158771320618
296.4187234742107
297.6846921240275
299.2395260506097
301.5651915041681
302.3885040418137
301.2749852424872
298.6889930362761
296.6976995216804
295.2665981522354
295.4462737336143
297.1880775384769
300.1557682035507
303.6850644960305
306.2432880637805
306.3684806501753
304.1388671013474
300.7610685740085
297.6894154483491
295.6380945563124
295.1521507815284
295.8814079929441
297.5154917241927
298.5789333750401
300.4964624177172
301.3701946494029
300.9822341731775
300.310704932668
299.8962421522519
300.0228052151768
301.4177349849584
302.9176116040095
303.8684195217022
303.2391331722232
300.5554788865397
296.5098169065422
293.6264771429117
292.525892331706
293.8311362832954
297.0125587786144
301.1959179181115
304.6951486235499
306.4190378974066
306.3900539461732
304.7209637637872
302.4180248168427
299.9437503527437
298.3280012156923
298.0093875581068
298.4235816354827
299.3572318099664
299.697047006206
298.7641293766237
297.1680798813195
295.3171672275141
294.2643635823457
294.984738926286
297.423300367842
301.643546000427
306.2852447946821
309.0760703165505
308.899170888606
306.5294098056573
302.6216733084736
298.3019470494186
295.1540042927765
293.8090747743274
293.8705362121652
295.4122013167571
297.9127685570164
303.0481740557872
306.4687882500975
306.7574285545926
304.9771467959709
303.6593917009644
302.3717637804714
301.9765826746873
301.7888520543971
301.2566600977743
299.6448305968648
296.4593186962873
293.4087548585859
291.1850323530213
291.443061301629
295.4953530374824
300.0358798630504
303.5842480057222
305.0238102009743
305.0846557494391
303.6476642867001
301.3821834596014
298.4093839337125
295.7831746697498
294.4036989083955
295.6103602559619
299.5150475786938
302.4966550199049
304.1990265077488
303.3483798953917
300.3941097400381
296.6959411383669
293.6079978033219
292.6659770042737
294.4332965342193
298.8060811468208
303.3334942300549
306.4948323599691
308.062848859527
307.821776436477
305.5516074292656
302.325773034805
298.9073315179811
296.6939661864535
295.2071290516242
294.9109647920855
295.075768843669
295.6946940722529
296.1506207503214
297.1173478640447
297.4825997667095
297.0462378982113
296.6629535804122
296.8378989103045
298.007578574635
300.6283184263889
303.0021051013123
304.5063346394798
303.5979286128164
299.9049012269502
296.1878108321919
293.3650311580287
292.7389678891308
294.3874541418475
298.0033270457805
302.6415648654379
305.9922808384601
307.2919480013587
306.5820295256353
304.7250469270543
302.9694724638755
301.6749340211289
300.2342488251674
299.0671862351001
297.6298941428643
295.5408085309636
294.2578952738979
293.0209687512863
292.1881248771231
292.4554225615105
294.5232090675767
298.2106893668957
303.8770987177525
307.8160116544611
310.25288692116
309.8193466923245
306.9268096834808
302.5611632315372
297.7912064403226
294.0152951875224
292.208427556368
292.6906718223304
295.2588396296469
298.8247185106647
303.8104697020052
305.9008591648265
304.8549934106868
302.5628866156964
300.1756722375937
298.379023717033
297.7832126822224
298.0121323865922
298.7605518129246
298.688610821527
298.7811173135233
297.2217832445411
294.7883560860789
293.7183184588716
292.7707873233797
293.2806403724655
295.8735974231818
299.8601829982451
305.2401641445869
308.1823664565865
308.9009247865416
308.2997356733302
306.4280834863372
304.5464822460167
301.5996797982367
297.8059544622316
293.6170829176352
290.4916054291481
288.9750071833399
290.4128547570645
293.3108897686815
296.9328784111901
299.9291818710725
301.5713023233657
302.0165291457159
302.4301523968791
303.0215783310776
303.4028934473636
304.0566869681049
303.0422941195844
299.5695343232851
296.6867958109236
294.9511898854859
294.573858565409
296.0994369603354
298.6944703339147
301.4998182742717
303.1069561155491
302.5636732994134
300.6469654331743
298.6812093139957
296.9887119295427
296.654525157892
297.8319754766059
299.7269931256146
302.591878459914
304.0585787672501
302.8588436869549
299.4593728560028
297.3799659579334
295.0856815848344
294.280067177036
294.6905243804749
296.5772856514937
299.8682817454003
303.7041049033919
307.2249754285156
308.5360952032994
307.4053745120985
304.3433526158417
300.3491054944747
296.7952079150696
294.5157768942548
293.6270984548879
293.833773462507
295.074553752917
296.2700036918288
297.2045939224476
297.1010848936426
296.8251448004997
296.9699649269015
298.4426916960867
301.0832768304442
304.6551874632631
307.3207081113719
307.6012145669914
304.9821677314552
300.4382605586776
296.8343339663843
294.2796755248935
293.7933172573113
294.9618838108576
297.6864305658276
300.1854799579442
303.1607900966458
304.1184872352773
302.9783810413069
300.4117815605822
298.3135221883832
297.039484505117
297.7367542537311
299.088314888724
300.9184467697574
301.538555559335
300.2994083938315
297.9850699260701
295.7540608670966
294.1237759578779
293.9721588984829
295.7878147031351
299.3248561533575
303.9978798777794
307.55341585264
309.0586608119908
308.3230114837382
305.0744312711533
300.6205732223494
296.7756796502715
294.6609985171265
294.1812978585016
295.1794474770934
296.3879135938504
298.3483909593647
299.2352088017441
298.4644470541881
297.2009534997924
295.7404538301246
295.0595184771576
295.8242222601077
298.329439775189
301.7439598481056
305.7051638590351
307.8957929803463
307.6547432510224
304.5959354980117
300.2348765068886
296.5891648944992
294.3765037788996
293.9106423490788
294.721083833516
296.5213784700244
298.2055512588089
300.3208359783001
301.3514329510501
300.9301800285406
300.56601576042
300.8584607771895
301.4000615663683
302.1649286160606
301.8076441720826
299.5668151629632
297.1979836103586
294.5291127331101
293.0449979335903
293.0727974157086
295.2634657084411
299.2079419591414
304.5017513219241
307.9793414042775
310.1239272679047
309.9703513478908
307.620680412781
303.9569832636359
299.6562575518644
296.0257152949165
293.6831061079914
293.0149211420167
293.5516060571158
293.6654759876326
295.7288048569234
298.6437621188263
299.9293343805365
300.7650209135124
300.2752098638014
299.6279440644544
298.7658110353227
298.4549494950753
299.1544356439005
299.2018657022933
300.7253907933491
301.2147765046249
299.8464548241408
297.9137494883454
297.2816390702126
296.7948975537335
297.2520440115741
298.2352370931082
299.6733907711198
300.28257584854
301.1584218093944
300.6189290424853
299.0527090993347
298.206140501918
297.6870884013339
298.4722189024456
299.9321258347092
301.1598078920425
300.7617306945725
299.0761397056621
298.3215852810456
296.6041355141061
295.5170729339573
295.0909553966854
296.0741974119633
298.7390717777574
302.4701861966584
306.9015489772701
308.8640462681794
308.0121446722543
304.3630613069698
300.4143411706054
296.8082441205795
294.9750482643189
294.5487641057466
295.2357015896877
295.3222682841118
296.5573865987573
297.7929714697888
298.1531865960904
298.6421092052461
297.8708137426265
297.2569579023855
297.4629201328819
299.3836260105332
301.8893446476105
306.2819851481037
307.9055307343613
306.2465364440636
302.6021450285559
300.637187783663
299.0274724888195
298.4069500246875
297.7887213224291
296.9111796227169
295.8958528058207
294.6316680090956
294.7199339037269
297.6865116152657
302.3727013095216
305.2054789840603
306.748261993061
306.1248934594916
303.4618933129111
299.9873119148656
296.7349945439094
293.9499367842059
292.2936409505456
291.7729622725787
292.4061719670429
294.7722123005111
298.6999679771589
304.8900801769834
309.0673697942572
309.9087838935382
308.2155658737775
304.5690024039707
300.2132399605975
297.5991719979297
295.8469925878513
294.5828752310199
292.9926952543191
291.4967340597514
290.5345839755117
291.6377393068171
296.1607296812959
300.3627238306988
302.7480097865013
303.520818690056
302.9021344974087
302.0036654556121
300.8714138607484
299.5951551234753
296.3728704903084
294.2181499992336
292.999266967943
294.2764370814302
296.6027369407942
299.8253470962727
301.0489322711837
301.6030751918956
301.4806382287441
301.0972259276917
300.6057442611665
299.7909979220358
298.0299129742863
295.2148589884717
292.9101743945832
292.3955266206906
294.4747244822988
296.7623080803535
299.4462392164448
300.3153197815685
300.9058832337419
300.9056637540414
300.4294653439903
299.5334933867691
298.3374034872369
297.6288730873314
298.3959787759308
299.3869604785694
301.6856282216573
301.5530371743465
299.1308324111799
297.8951366338884
297.471025539417
298.3343249064593
299.8380480864163
301.0821774988717
301.8119178375129
302.0852625682118
301.8292176448438
301.2210171471815
299.0058176337125
296.0810904560263
292.0783088220124
291.0316012173236
293.4945959525742
296.4221224810788
298.6902189942675
299.414966662861
299.6255427038945
299.3703978916732
299.4132494361679
300.3863234148413
300.4823032256209
301.6658838876965
300.0500170667337
295.7500626013655
293.0648017253057
291.4616341861561
291.3180843588311
293.0350806214596
296.6939701743804
301.0124500199593
305.775483858394
308.9657721136053
309.3237628987109
306.9417524078914
302.6188753658705
296.2584886398789
291.8809033599371
289.3281714377997
289.536903904704
292.1885567442108
296.7000006741071
301.9646942155708
306.1445926045852
308.2093259279489
307.9495148233821
304.3455102798398
298.5755065228779
293.7055521669277
290.7308585132333
289.5372359247127
290.677081207165
294.1959337630977
298.7654771820736
304.0169101187875
307.0064054487872
307.1075521730569
303.700474060099
298.4967986308669
294.7398264345271
292.11363550346
291.4926763459881
292.4899417269783
295.4559907914356
298.8826067344586
304.0832453524151
306.2963178794123
304.685791188675
300.2941501293816
297.1548749549719
294.5281412951952
293.6838513119984
293.8531363018856
295.2796412417609
297.897716910537
301.744738513989
304.4926791283663
303.8850688854361
300.5575949289484
298.8799149497671
296.4656822528919
295.485596833367
295.212509885357
295.6301302379362
296.88394463235
298.3314413382006
300.8669256735778
301.7300938708419
300.4439804839754
300.3130620124822
299.7093142061435
299.7446780688797
299.504578664946
298.7342927847697
297.9766855465302
295.4412937663481
293.9422700652838
293.8819768183574
296.6150205010271
299.3251854351104
302.1607685515445
303.4952524364717
303.9285855375321
302.647939313554
300.1990478160716
297.0287112022517
294.0974216397408
292.3465161773981
292.2095350636702
292.4399928272083
295.0641534605562
298.7370425981647
300.1846359835693
301.4174137233712
301.2018535290644
301.4012659400084
301.3309473905374
300.7567327207314
298.2808020321183
294.4083429034046
290.3828468580766
288.175356440831
289.5725392338999
294.1018295112591
298.9314542653789
302.6788847013113
304.5683711993706
304.6373387233195
302.4124903632129
298.6872950506722
293.9804391900664
290.7960962225832
289.3498818364907
290.6365116681716
293.8240744172533
297.8063441551521
301.0268670560503
302.3828187833251
301.1054522895864
298.0990432308729
294.3024555935349
293.012214430004
294.1415369045198
296.9447111471701
299.4962515306244
301.4818886085991
301.3861919065748
299.742702979735
296.7866225016852
294.4080091345671
293.4348765595914
294.7742265025858
297.2732513134999
299.3252820370668
299.1782606937203
297.3610943338223
294.9175293088271
292.9187924069559
292.6370280517717
294.4349231505019
297.5791010415834
300.549805497655
302.3415653537091
302.1080313095956
298.9884869590056
294.1681918919874
290.4441141972633
289.7770038914769
292.3072417905345
296.6071180976659
301.1588563669752
303.7002430529969
304.4338085884517
303.5760346621825
300.7489618847659
296.266203954821
291.2495192503786
288.1424218912053
288.7027035375891
292.4965813966369
297.5498778250673
302.2209435945779
305.0280418707824
305.5329721283019
303.8272201384386
300.3530691854991
295.1751678833006
290.4889209786282
287.7015897530947
287.5866625450921
290.6341353802655
295.5128675118029
301.2230707828969
305.4162061273216
306.3287540248159
303.6765423625442
299.2511782706529
294.6377607193739
292.3608968471165
291.2648127956738
291.4014394333086
292.2326304951805
294.0441975021839
296.4391472457255
299.9337306744953
301.791919436078
299.7450610349255
295.2309797646145
293.2301536926897
291.6432857873257
291.5805200193198
292.3532403403523
294.0274617304186
297.2949287209428
300.0307888597459
302.9013813812723
303.1474716052397
299.3904019751203
293.5818366854323
290.3853193162994
289.0856082868186
290.5127027164143
293.7091742833303
297.9949327304389
301.7733399687031
304.362998020912
304.7077690669151
302.4310414940551
298.3840278874809
293.0917656385645
289.3803721654982
289.4534553728113
291.9893908602809
296.1298926367585
300.0238253943682
302.7635959686236
303.18519963509
301.9985722923536
298.7790392630613
295.0029436720013
291.0765629430647
290.460240229576
292.6285475207945
296.1342241465235
299.3780033441869
301.4414527396194
301.9112751948653
300.9840408177104
298.837036717238
296.042600977685
293.2191859244586
291.5940541500174
292.1579673950322
293.6451855689005
295.2581340510288
295.5639781125709
295.1786532804149
294.7085114065692
295.1577115033254
296.9803664105505
298.8224947522352
300.9279995681983
301.1194563206295
298.5783960739571
294.3019794205901
291.6207856136789
289.9379043319324
289.858106937849
291.4143508989778
294.825445905979
299.2885751264136
303.0799234945777
305.1464553572047
305.3299959839994
302.4815865666054
297.8229449582232
293.1650612021343
290.5121105465157
289.4977372282078
291.148799247185
294.9188321845159
298.9183826258688
302.3631100161463
303.1401673117741
300.4378129350241
296.290491288913
293.5051850674419
291.861984360012
291.9679874406048
292.9852601682586
295.1161930309992
297.2664085219138
299.6289729502172
300.3330639518002
298.0088350887893
293.9521211515089
292.3004896632851
290.9676532903486
291.2181028770863
292.7018539979856
295.5704989336473
299.3916453233237
302.3911780276042
304.0455868483861
303.5028251296957
299.9042396578852
294.2150740374944
290.6641298259391
289.7588559101367
291.1243169861674
293.939929277075
297.4106354664028
300.5660876428896
302.8061651472319
302.8387184780979
301.3769814095733
298.8262597007647
295.0415604683548
292.2130582671136
292.3452463011687
293.9786434878209
296.1171301122595
298.2008623048564
300.050767886764
300.4535401088296
300.0584691526338
298.7427959245838
297.4598869368193
296.1354084530246
295.7783399117677
296.5076084850592
297.2351910680592
298.1130029023921
298.4226160086721
297.9172709733375
296.6619901746201
295.3268105316712
294.4422178675837
294.9427399811407
296.4150851256486
298.2054206626048
299.4378251277091
299.7328716063997
298.4789858263941
296.3642953843748
294.0886234119238
292.7394508596411
292.693739147886
294.1869192856158
296.5695882233473
299.1082913618729
299.7903478581486
298.4617283656484
296.7323315218932
294.8985311066208
294.1928231790669
294.4805762616024
295.5740673321552
296.8101562416557
297.805957199514
297.7886569300695
296.4489445097332
294.8963440477075
294.2019701830304
294.7738090598506
296.6965448029371
298.6257030896963
299.7154778369766
299.5249757647159
297.7157372334579
295.6031332863327
293.5505106444923
292.9407590964552
293.7087719804538
294.5052533774789
296.6895744789251
297.8748611451406
297.5546075072079
297.3810328676653
296.4920508658375
295.5643114570026
294.9438370280441
293.9104900718069
293.3747360061921
293.4381737239764
294.3047963371741
295.4341587618877
297.1766357300442
297.8085135155317
298.1634160884732
298.119935495573
297.2705246016951
295.4894797405948
293.3898481120004
291.9485430675664
292.0715868720159
293.2323682815991
294.3782387018828
295.3047120008949
296.3685278073588
297.3740459145416
298.2923285715906
298.4237022470546
299.3129541677442
298.3339373710041
295.3005717626599
292.8179690558179
291.8412519269605
291.1440795556337
291.278996212477
292.2410399983586
294.2549787837368
297.6103515107018
300.2154716216719
302.3038942341461
303.0097560028606
301.0165058134899
296.8817651314877
293.582750552671
292.1914829682756
291.8057658155137
292.5312294185555
294.4754833627765
297.5240851686995
299.296229774835
301.0792130861641
301.3684297741466
299.4607424969669
296.3107644901875
294.7572187995725
293.5361090889443
293.339078055354
293.9158079033883
295.0281169956064
295.737050731901
297.044727420918
297.8053365348093
297.6548201372053
296.7410759462117
295.7088878809143
294.2949608755152
293.4883978674956
293.4105656733925
294.310176823074
295.7083275754204
297.3639851922982
298.0753738754154
296.9778268535419
294.2131579468144
291.6991703018088
290.2328853297666
290.1464285760001
291.4681638402614
293.8513171291337
296.8709554987337
299.6934815026356
301.038282615154
300.8596214572966
299.0413757969525
295.9279299719161
291.7880567755482
289.9525888094253
290.759875654362
292.8327999343915
295.3395819915929
297.7838677155024
300.2368564408356
300.814349793745
300.3565997396529
298.4543140017329
295.9036532122852
292.3571087138255
291.0935453563093
291.798342677742
293.883507853721
296.6029684885424
299.1726013621419
300.4489463807568
300.1646957211912
298.2077470466084
295.2266442937031
292.1209169145892
290.7353895573665
291.3046261516725
293.2520344104913
295.4697420542606
296.8727778417522
297.2747951637739
295.7896697732634
293.4220728063326
)
;

boundaryField
{
    inlet
    {
        type            fixedValue;
        value           uniform 300;
    }
    outlet
    {
        type            inletOutlet;
        inletValue      uniform 300;
        value           uniform 300;
    }
    frontAndBack
    {
        type            empty;
    }
}


// ************************************************************************* //
