/*--------------------------------*- C++ -*----------------------------------*\
| =========                 |                                                 |
| \\      /  F ield         | OpenFOAM: The Open Source CFD Toolbox           |
|  \\    /   O peration     | Version:  v2012                                 |
|   \\  /    A nd           | Website:  www.openfoam.com                      |
|    \\/     M anipulation  |                                                 |
\*---------------------------------------------------------------------------*/
FoamFile
{
    version     2.0;
    format      ascii;
    class       volScalarField;
    location    "0.015";
    object      pMean;
}
// * * * * * * * * * * * * * * * * * * * * * * * * * * * * * * * * * * * * * //

dimensions      [1 -1 -2 0 0 0 0];


internalField   nonuniform List<scalar> 
1000
(
101325.0447531291
101325.03268829
101325.0334634813
101325.0544647493
101325.0694265574
101325.0937726396
101325.1107990009
101325.1463139739
101325.157576514
101325.1985961633
101325.2141584621
101325.2407383397
101325.2670945458
101325.3012288028
101325.3082179249
101325.3218695945
101325.3607978348
101325.3699247445
101325.3649219817
101325.3775831413
101325.3980923872
101325.3924825113
101325.3692903754
101325.3852360402
101325.3853500261
101325.3555327201
101325.331794041
101325.3392288657
101325.318927983
101325.2744725878
101325.267079092
101325.25618878
101325.2150047737
101325.1859074488
101325.1916163969
101325.1543781232
101325.1222040508
101325.1209614144
101325.1035116056
101325.0770138727
101325.0693522641
101325.0617616847
101325.0543885495
101325.0536842969
101325.040268262
101325.0546154679
101325.0698658805
101325.057079741
101325.0805776422
101325.1059979945
101325.1114333482
101325.1310613014
101325.168336325
101325.1767458372
101325.2080635443
101325.2407417305
101325.258928221
101325.283907509
101325.3172628205
101325.3305444329
101325.354508889
101325.3808842373
101325.3899372684
101325.4036375815
101325.4321058699
101325.4302027328
101325.4292122987
101325.4463554762
101325.4463909
101325.4299944502
101325.4258849172
101325.4265826606
101325.4024161835
101325.3840676169
101325.374503488
101325.3534849711
101325.3201041806
101325.3085183483
101325.2843210413
101325.2525791842
101325.2323438608
101325.2177319473
101325.1850283558
101325.1694343193
101325.1507741629
101325.1304067254
101325.1182009701
101325.1014798618
101325.0884290199
101325.0863739372
101325.0796438236
101325.0702604979
101325.0782237348
101325.0868523521
101325.0845172217
101325.0993277427
101325.1128775492
101325.1290344009
101325.1400396144
101325.1676819171
101325.1812329648
101325.2016094527
101325.2344800179
101325.2438447813
101325.2596666144
101325.298605396
101325.3075195006
101325.3098335318
101325.3478201941
101325.3540611635
101325.355321018
101325.3783214707
101325.3875698009
101325.3740056649
101325.3908435485
101325.3984248332
101325.3753494394
101325.3811625256
101325.3835009579
101325.3531310385
101325.3481685439
101325.3507486717
101325.3118017596
101325.3012159585
101325.3025931921
101325.2663338668
101325.2451212659
101325.2512623364
101325.218705877
101325.1930247105
101325.2022343106
101325.1782380542
101325.1513188001
101325.1594844086
101325.1522133478
101325.1237224208
101325.1318439459
101325.1416867331
101325.1152588579
101325.1294730169
101325.1521866164
101325.1347939011
101325.1461277487
101325.1862900053
101325.1783002146
101325.1927081477
101325.2324288033
101325.238779468
101325.2562380127
101325.2907230311
101325.3027612086
101325.3174017778
101325.3466099913
101325.3589594646
101325.3669356319
101325.3935789456
101325.4024643431
101325.4044472471
101325.4248042254
101325.427579337
101325.4226999527
101325.4357952228
101325.4372679549
101325.4197129901
101325.4272140042
101325.4168066657
101325.4014654248
101325.3892745337
101325.3843602451
101325.3616686539
101325.3406215618
101325.334907042
101325.30839553
101325.2918875232
101325.2815647885
101325.2587499387
101325.2392990056
101325.2419329135
101325.2143044044
101325.1991751175
101325.2070406417
101325.1856354917
101325.1744226942
101325.18623372
101325.1775711188
101325.1670933155
101325.1904173381
101325.1903559526
101325.1854660868
101325.2168471565
101325.2256809889
101325.230522248
101325.2567278206
101325.2859564295
101325.2895156428
101325.3166227946
101325.3471416604
101325.3543087956
101325.3703128884
101325.4028841493
101325.4071510155
101325.416461298
101325.4418109451
101325.44961812
101325.4511457918
101325.4617892361
101325.4700270578
101325.4710595206
101325.4686953529
101325.4687919226
101325.4671923757
101325.4547568085
101325.4479698268
101325.437718394
101325.4237261398
101325.4028179754
101325.3938852129
101325.3763368745
101325.3507147638
101325.338666601
101325.3288314639
101325.2990960326
101325.2896983731
101325.279280192
101325.2627750383
101325.2444880786
101325.243629225
101325.2319323261
101325.2217656136
101325.2159733537
101325.219846577
101325.213536861
101325.2161437186
101325.2280348273
101325.2256802398
101325.2411202968
101325.2552706589
101325.2626002011
101325.2861243193
101325.3053174466
101325.3204331474
101325.3455106449
101325.3660219281
101325.3811992966
101325.4041099431
101325.4185124171
101325.4370967026
101325.4468830386
101325.4610657616
101325.4734407391
101325.481990764
101325.484722752
101325.494359953
101325.4961662796
101325.4946750718
101325.4930375164
101325.4979459133
101325.4800477443
101325.4754657282
101325.4685968128
101325.453829198
101325.4327143865
101325.4252942362
101325.4055408478
101325.3790510169
101325.3709338956
101325.3558990168
101325.3244248852
101325.3183136909
101325.3075045075
101325.2833918192
101325.2699164371
101325.2688477896
101325.2534363342
101325.2389137894
101325.2412361826
101325.2357059656
101325.2312846079
101325.2282230717
101325.2438602075
101325.237600691
101325.246061261
101325.2636720225
101325.2708473455
101325.2861776405
101325.3037509026
101325.3256284172
101325.3419216183
101325.3626592701
101325.3826833776
101325.403321521
101325.4146719594
101325.4296928193
101325.4478975103
101325.4569582925
101325.4676147581
101325.477536035
101325.4848630449
101325.4802765749
101325.4942900892
101325.4916535732
101325.4832805847
101325.4884107861
101325.4829265595
101325.4665161894
101325.462157167
101325.4523399621
101325.4301277104
101325.4185961118
101325.4011471209
101325.3847018393
101325.360607601
101325.3479706633
101325.3303829737
101325.3098088056
101325.2946618827
101325.2835440475
101325.2659515689
101325.2540317746
101325.248767565
101325.2356731368
101325.2256942423
101325.2262068234
101325.221042581
101325.2180358273
101325.2259526181
101325.2271900038
101325.229454113
101325.2431136232
101325.2557546946
101325.2638105226
101325.2816898034
101325.3065763129
101325.3169097066
101325.3392128035
101325.3641127586
101325.3765974522
101325.396333704
101325.4163753947
101325.4235458072
101325.4409700665
101325.4541785548
101325.4573306611
101325.466805187
101325.473061625
101325.4720599834
101325.4758760679
101325.4759791597
101325.4716531846
101325.4685179073
101325.4613281216
101325.4494054423
101325.4390446328
101325.4268820136
101325.4101221731
101325.3954064111
101325.3736106753
101325.3591970953
101325.3400100345
101325.3177737196
101325.3059508462
101325.2876934739
101325.2708380831
101325.2540490403
101325.2484801945
101325.2298212698
101325.2237317114
101325.2141269456
101325.2090601614
101325.2032988295
101325.2024385227
101325.2052037185
101325.2027998541
101325.2102634191
101325.2172372712
101325.2275644398
101325.2331891836
101325.2559387875
101325.2651650859
101325.2832443773
101325.3072737633
101325.3183807309
101325.3433439875
101325.3599962114
101325.3693517718
101325.387372164
101325.4015459651
101325.4064046222
101325.4192722997
101325.4283729009
101325.4264670689
101325.4294593104
101325.4333348093
101325.4299580136
101325.4264385478
101325.4213722354
101325.4166475674
101325.4014678322
101325.3964162931
101325.3806791622
101325.3613688217
101325.3494670166
101325.3345707878
101325.3070904132
101325.2925592291
101325.2795097699
101325.2533394607
101325.2367868403
101325.2252622425
101325.2058959282
101325.1920831536
101325.1815034395
101325.1703645513
101325.1634951014
101325.147225366
101325.1486320618
101325.1497399707
101325.1375436978
101325.1459702014
101325.1501968538
101325.1515802335
101325.1588059234
101325.1721442017
101325.1773868348
101325.1951674215
101325.2136046575
101325.2257263526
101325.2447739137
101325.2666503081
101325.2766885182
101325.296762317
101325.3116015898
101325.3165676366
101325.333685749
101325.3414804411
101325.3443981639
101325.3522386334
101325.3481419564
101325.3532596864
101325.3510724301
101325.3423928032
101325.3423322826
101325.3333452677
101325.3213831576
101325.3132145916
101325.2979262077
101325.2819066266
101325.2676610662
101325.2475676046
101325.2319196536
101325.2086397333
101325.1910958921
101325.1744598687
101325.1550115833
101325.1334766772
101325.1198770427
101325.1080298587
101325.0877679974
101325.079675269
101325.0700022037
101325.0578264578
101325.0471818899
101325.0544275806
101325.0388071381
101325.0445409141
101325.0412901273
101325.0546769635
101325.0506310961
101325.0594643246
101325.0722717899
101325.0811215734
101325.0927480898
101325.1112999168
101325.1276237025
101325.1399937529
101325.1597929904
101325.1769294158
101325.1844929251
101325.1988337657
101325.2074598229
101325.218110699
101325.2219501694
101325.2270870731
101325.2276782835
101325.225131098
101325.2247967524
101325.2195175653
101325.2098952083
101325.2044429129
101325.1976582564
101325.1797296188
101325.1691571358
101325.1546995132
101325.1338875691
101325.1203618881
101325.097937324
101325.0773163731
101325.0610559286
101325.0406413718
101325.0195369987
101325.0036467072
101324.9835964143
101324.9656558772
101324.9526342242
101324.9397968982
101324.9265755644
101324.9159665638
101324.906199825
101324.9011401817
101324.8963515476
101324.888285346
101324.8937015294
101324.8984496101
101324.8931094531
101324.9023498779
101324.91028498
101324.9166972784
101324.9256105523
101324.9424675727
101324.9522048587
101324.9700975524
101324.9831241296
101324.9992800226
101325.0073972493
101325.0258458764
101325.0292401118
101325.0300628923
101325.0464891419
101325.0498318735
101325.0402749036
101325.0412119564
101325.0447982049
101325.0316140518
101325.0226826206
101325.0194829328
101325.0059267315
101324.9869895465
101324.9853048111
101324.9604033167
101324.9361483766
101324.9285499168
101324.9068386361
101324.8762134741
101324.8654182662
101324.8428888137
101324.8180342168
101324.807741625
101324.7800457701
101324.7583625661
101324.7515852151
101324.7304780176
101324.7118132584
101324.7122322441
101324.6886974535
101324.6804539853
101324.6803094844
101324.6750500683
101324.6589566794
101324.6754038523
101324.676609542
101324.6642302915
101324.6782876079
101324.6918766551
101324.6820060449
101324.7002131967
101324.7169508786
101324.7227474356
101324.7316514274
101324.7564623127
101324.7621395297
101324.7647870417
101324.7807422967
101324.7892559111
101324.7857633494
101324.789090615
101324.7988234788
101324.7891323147
101324.7762234646
101324.7843058423
101324.7668624306
101324.753149939
101324.7471025061
101324.7367334295
101324.7095196945
101324.6984085489
101324.6859146799
101324.6509979574
101324.6389723556
101324.6217255643
101324.5884752717
101324.5701468985
101324.5600230151
101324.5278885677
101324.5045746229
101324.4877667328
101324.471436972
101324.4472260373
101324.437011866
101324.4222954331
101324.4048551713
101324.3943386085
101324.3874447252
101324.3756607899
101324.3744035947
101324.3726715927
101324.3724734108
101324.3719593851
101324.3753691656
101324.3798487278
101324.3818754977
101324.3907832386
101324.4024416005
101324.4113159147
101324.417332755
101324.4379850472
101324.4449181281
101324.4552506274
101324.4598360841
101324.4691207202
101324.4714838252
101324.4721017108
101324.4821668995
101324.4693403267
101324.4666404847
101324.4617782298
101324.4513811759
101324.4337612186
101324.4343852621
101324.4113283296
101324.3965421646
101324.3822539799
101324.3560417411
101324.3375612728
101324.3201845504
101324.2890914857
101324.2720607829
101324.2536160005
101324.2215191849
101324.2071134476
101324.1879367283
101324.1622460697
101324.1400516308
101324.1207813123
101324.1074878408
101324.0946331544
101324.0723194041
101324.0586147035
101324.0545029563
101324.0366595113
101324.0295975983
101324.0372001488
101324.0224475326
101324.025710324
101324.0325237086
101324.0214938453
101324.028234372
101324.0405306233
101324.0368396009
101324.0492360758
101324.0576076752
101324.0601806023
101324.0808506291
101324.0837455569
101324.0823857331
101324.0967543408
101324.0999154347
101324.0925714771
101324.0980718361
101324.1012285741
101324.0856024729
101324.0773329934
101324.072955667
101324.0570431946
101324.038749623
101324.0354039763
101324.0112138126
101323.9884878773
101323.9722623477
101323.9471979392
101323.9233162026
101323.8982496156
101323.8810081953
101323.8481459313
101323.8301344309
101323.808525561
101323.7810456972
101323.7575961017
101323.7419738464
101323.7136950663
101323.6941120702
101323.6839743839
101323.6595818371
101323.6427894339
101323.635331633
101323.6202105516
101323.6026493564
101323.6067304837
101323.6003498979
101323.5946403443
101323.5977502058
101323.5975597914
101323.5911044346
101323.5999553468
101323.6029427923
101323.6059836009
101323.6140579636
101323.6226210458
101323.6287642744
101323.6357592953
101323.6378227288
101323.6463459562
101323.651356684
101323.6399839936
101323.6493007332
101323.6534267375
101323.6339541169
101323.6261972957
101323.6280422008
101323.6041134526
101323.5839313007
101323.5826923427
101323.5624706982
101323.5334786439
101323.5180688656
101323.5013252119
101323.4582621425
101323.4396471963
101323.427097079
101323.3875415571
101323.3632316332
101323.3517102981
101323.3183486014
101323.2892906398
101323.2810605378
101323.2504314786
101323.2185363406
101323.2198396179
101323.1932821517
101323.1627426181
101323.1611287244
101323.1489201829
101323.1136005408
101323.1233931147
101323.1160103097
101323.0982680121
101323.105790985
101323.1024386989
101323.0935108361
101323.0945234711
101323.1003054927
101323.0913767731
101323.1027263469
101323.1097997509
101323.1066412636
101323.1118654595
101323.1240287767
101323.1142203772
101323.115560266
101323.1204854752
101323.1160828291
101323.1055276149
101323.1100059366
101323.091475494
101323.0798796834
101323.0690114245
101323.0507847504
101323.0267052314
101323.0197733351
101322.9919796014
101322.9660786272
101322.9446071228
101322.9146424101
101322.8853886372
101322.8585997107
101322.8287090587
101322.8012825211
101322.7800317173
101322.7503816453
101322.7183132625
101322.703952887
101322.6697933347
101322.6462051744
101322.6249372019
101322.6057006092
101322.5807023417
101322.5644824477
101322.5418151846
101322.5265629863
101322.5139335292
101322.4997519441
101322.4949877384
101322.4884843024
101322.4802832895
101322.4838164845
101322.4731672538
101322.467019908
101322.4733837069
101322.4718138355
101322.4680954596
101322.4775308848
101322.4789886219
101322.4751446596
101322.4753929049
101322.4829528262
101322.464622573
101322.467293749
101322.4692028313
101322.4475269538
101322.4451460475
101322.4319548395
101322.4121771201
101322.3911082928
101322.380927854
101322.3574297699
101322.3283897599
101322.3142983026
101322.2804896483
101322.2590797371
101322.2187849619
101322.1897024049
101322.1650797873
101322.1304130727
101322.094380965
101322.0807929482
101322.0488806414
101322.0066554949
101321.9911553793
101321.9704067259
101321.9258917161
101321.9081902291
101321.8985976958
101321.8590777023
101321.8377138842
101321.8339997245
101321.8003711312
101321.7836800531
101321.7908283288
101321.7683734755
101321.7589095963
101321.7623970483
101321.7569506527
101321.7413117203
101321.7429449808
101321.7468594369
101321.7400745318
101321.7367367372
101321.7466260342
101321.7481870144
101321.7375820422
101321.7411909142
101321.7354609282
101321.7294109186
101321.7219457937
101321.7160023925
101321.7020250475
101321.6957995971
101321.6691318726
101321.6582777741
101321.6330100435
101321.6216905248
101321.5914100748
101321.5736470551
101321.5463152463
101321.512993422
101321.4837108176
101321.4503895341
101321.4219757654
101321.3818832572
101321.3553728761
101321.3274871599
101321.2990204326
101321.2674854673
101321.2432015436
101321.2146536978
101321.1798903218
101321.164979638
101321.1376689415
101321.1064906192
101321.0910929616
101321.0730466546
101321.0421647458
101321.0250470354
101321.0179615724
101321.0022963815
101320.9927136562
101320.9905461476
101320.9739117484
101320.9660265456
101320.9713691635
101320.9537820313
101320.9578324424
101320.9545473731
101320.9449299836
101320.9528085432
101320.955274112
101320.9386834695
101320.9351642916
101320.9387077795
101320.9217279162
101320.9075692074
101320.904666173
101320.8879235553
101320.867762355
101320.8508899528
101320.8309493518
101320.7966010215
101320.7940566305
101320.7627752072
101320.7301903311
101320.7012178369
101320.6776198163
101320.6291190706
101320.6039380758
101320.5784127207
101320.520114926
101320.5006005509
101320.4766007839
101320.4363532785
101320.4047614801
101320.3888161993
101320.3377241833
101320.3235008638
101320.3021710091
101320.2597314228
101320.2394574874
101320.2284827762
101320.1876896296
101320.1711957025
101320.1607142688
101320.1368032728
101320.128978918
101320.1322230577
101320.1064212565
101320.0977234801
101320.1001358955
101320.0897074523
101320.0851515046
101320.0814093756
101320.0784107092
101320.0702141672
101320.073852654
101320.0739978375
101320.0576949959
101320.0511686531
101320.0540593432
101320.0330433568
101320.023566945
101320.0127795478
101319.9913693209
101319.9719378209
101319.9599621389
101319.9237808099
101319.8966914262
101319.898076766
101319.8554527689
101319.8292204098
101319.7931050332
101319.7663173123
101319.7255933997
101319.6962533734
101319.6614719538
101319.618137701
101319.5929443761
101319.5541433369
101319.5280098597
101319.4972099647
101319.4636479412
101319.4378777153
101319.4071121888
101319.3766007192
101319.360125844
101319.3250776288
101319.2962084658
101319.2890291702
101319.2622901725
101319.2331423998
101319.2476147041
101319.2337701654
101319.2123159935
101319.210489026
101319.2055959324
101319.1931516527
101319.1910861366
101319.1909330787
101319.1904667014
101319.1842462473
101319.1715340153
101319.1853181756
101319.1828965346
101319.1507086408
101319.1672885555
101319.1496319845
101319.1323781347
101319.1564294241
101319.0681422702
101319.1000972544
101319.1100371406
101318.9998216349
101319.0009494852
101319.0303326518
)
;

boundaryField
{
    inlet
    {
        type            calculated;
        value           uniform 101325.0023551746;
    }
    outlet
    {
        type            calculated;
        value           uniform 101319.0400780246;
    }
    frontAndBack
    {
        type            empty;
    }
}


// ************************************************************************* //
