/*--------------------------------*- C++ -*----------------------------------*\
| =========                 |                                                 |
| \\      /  F ield         | OpenFOAM: The Open Source CFD Toolbox           |
|  \\    /   O peration     | Version:  v2012                                 |
|   \\  /    A nd           | Website:  www.openfoam.com                      |
|    \\/     M anipulation  |                                                 |
\*---------------------------------------------------------------------------*/
FoamFile
{
    version     2.0;
    format      ascii;
    class       volVectorField;
    location    "0.015";
    object      U;
}
// * * * * * * * * * * * * * * * * * * * * * * * * * * * * * * * * * * * * * //

dimensions      [0 1 -1 0 0 0 0];


internalField   nonuniform List<vector> 
1000
(
(-0.06710045700384401 0 0)
(-0.0935574715244593 0 0)
(-0.09420062518600092 0 0)
(-0.1185340903676603 0 0)
(-0.118857491987797 0 0)
(-0.1277581519078559 0 0)
(-0.1381520924994383 0 0)
(-0.138054940244789 0 0)
(-0.1394700402610202 0 0)
(-0.1387246388687372 0 0)
(-0.1346238703604858 0 0)
(-0.1280589708628752 0 0)
(-0.1181406035273606 0 0)
(-0.1104588759866558 0 0)
(-0.09842406624050132 0 0)
(-0.07965090552425264 0 0)
(-0.07013723439139495 0 0)
(-0.04935018550313063 0 0)
(-0.02847026382480012 0 0)
(-0.01453743556805969 0 0)
(0.005243984527838658 0 0)
(0.02341328624221734 0 0)
(0.04027939049669768 0 0)
(0.05611711378803785 0 0)
(0.07189763296776235 0 0)
(0.08629968845918246 0 0)
(0.09822827988813365 0 0)
(0.1092539489147224 0 0)
(0.1173742213460127 0 0)
(0.1223842160387382 0 0)
(0.123905609067422 0 0)
(0.1232466507730971 0 0)
(0.1227849634835843 0 0)
(0.1171165699430434 0 0)
(0.1104131152600745 0 0)
(0.1042676187830422 0 0)
(0.09426498343532187 0 0)
(0.08506054998748314 0 0)
(0.0728249514183173 0 0)
(0.05723973517394979 0 0)
(0.04344786157237714 0 0)
(0.02462690832928352 0 0)
(0.008135170599026529 0 0)
(-0.007981621266655871 0 0)
(-0.02834232447935477 0 0)
(-0.04359279521262531 0 0)
(-0.06036590511959371 0 0)
(-0.07746247071535718 0 0)
(-0.09062637082984483 0 0)
(-0.1053515775683165 0 0)
(-0.1170554200921055 0 0)
(-0.1257870257907416 0 0)
(-0.1343421716157905 0 0)
(-0.1382085682252666 0 0)
(-0.1409620641071124 0 0)
(-0.1370482031578278 0 0)
(-0.1339631793545659 0 0)
(-0.126359044252924 0 0)
(-0.1206007507576719 0 0)
(-0.1107458673850955 0 0)
(-0.09953075878928343 0 0)
(-0.09022219126019124 0 0)
(-0.07460457473268935 0 0)
(-0.05774829609427277 0 0)
(-0.04224386123904161 0 0)
(-0.02260615763806285 0 0)
(-0.00363008561587441 0 0)
(0.01441299722375753 0 0)
(0.0334518474278974 0 0)
(0.05147168028426923 0 0)
(0.06750411071901068 0 0)
(0.08082530189040921 0 0)
(0.09492147120507789 0 0)
(0.1069484216067854 0 0)
(0.1151768206908285 0 0)
(0.1235145500525155 0 0)
(0.1285432599367811 0 0)
(0.1301649656694767 0 0)
(0.1270690885834271 0 0)
(0.1246851281633966 0 0)
(0.1185997780714518 0 0)
(0.1118198917699375 0 0)
(0.1033819989172953 0 0)
(0.09691942643484347 0 0)
(0.0867631024205756 0 0)
(0.0737540529978493 0 0)
(0.06328165829768481 0 0)
(0.04774403435902275 0 0)
(0.03148100934019322 0 0)
(0.01695151044857664 0 0)
(-0.0003423450085906439 0 0)
(-0.01852709816261578 0 0)
(-0.03399583159680684 0 0)
(-0.04907236847409945 0 0)
(-0.06463618993811807 0 0)
(-0.07632785196738465 0 0)
(-0.0880462929262361 0 0)
(-0.09821738507301339 0 0)
(-0.1057804072418948 0 0)
(-0.112073080363301 0 0)
(-0.1152873340405139 0 0)
(-0.1147562688592058 0 0)
(-0.112321667101435 0 0)
(-0.1083394547967858 0 0)
(-0.1019813170970739 0 0)
(-0.09414766411636342 0 0)
(-0.08618739548497008 0 0)
(-0.07941250998742788 0 0)
(-0.06770124273548009 0 0)
(-0.05686709065249367 0 0)
(-0.04608209559972287 0 0)
(-0.03029029237252771 0 0)
(-0.01709410281347123 0 0)
(-0.005007939919010764 0 0)
(0.01137447864304084 0 0)
(0.02607406724477276 0 0)
(0.0376337940250243 0 0)
(0.05124598716797268 0 0)
(0.06368408124379359 0 0)
(0.07098551082879516 0 0)
(0.0811350244788453 0 0)
(0.08795042532734224 0 0)
(0.09288686703542479 0 0)
(0.09600383244802763 0 0)
(0.09565786015270324 0 0)
(0.09489897612540062 0 0)
(0.09199802063324262 0 0)
(0.08672808944862447 0 0)
(0.08106178123035537 0 0)
(0.07488628546079207 0 0)
(0.06901324863923004 0 0)
(0.06141515349464925 0 0)
(0.04999725280624697 0 0)
(0.04171247336182227 0 0)
(0.02999373947906625 0 0)
(0.01621333523354755 0 0)
(0.005559306744626173 0 0)
(-0.009542466616124274 0 0)
(-0.02436205968663455 0 0)
(-0.0383093187321086 0 0)
(-0.05302379030256264 0 0)
(-0.06647743134440161 0 0)
(-0.07942540066452192 0 0)
(-0.09045571023327506 0 0)
(-0.09847486675556483 0 0)
(-0.1078697161721448 0 0)
(-0.111945793649293 0 0)
(-0.1117056599749617 0 0)
(-0.1112326057462974 0 0)
(-0.1070905205328584 0 0)
(-0.1018962174643379 0 0)
(-0.09553180320150323 0 0)
(-0.08853827027356623 0 0)
(-0.07907793007923523 0 0)
(-0.07105288651555432 0 0)
(-0.06128797051463859 0 0)
(-0.04888758654903547 0 0)
(-0.03871460709702909 0 0)
(-0.02531757788500471 0 0)
(-0.01244573833926898 0 0)
(-0.0004676193121319656 0 0)
(0.01459068524384403 0 0)
(0.02773078367195474 0 0)
(0.03978639716941631 0 0)
(0.05305580355302568 0 0)
(0.06401266646641307 0 0)
(0.07429670034165911 0 0)
(0.0823328596715234 0 0)
(0.09160723053989528 0 0)
(0.09571903859858101 0 0)
(0.09626651327861252 0 0)
(0.09620078985923833 0 0)
(0.09362013293926544 0 0)
(0.08930386879805677 0 0)
(0.08348884602737996 0 0)
(0.07733116002257506 0 0)
(0.07130579440967309 0 0)
(0.06375900586621845 0 0)
(0.05388579679273665 0 0)
(0.04534607604166437 0 0)
(0.0348927099016381 0 0)
(0.02263554980397181 0 0)
(0.01083734969072976 0 0)
(-0.001795115347004287 0 0)
(-0.01555319374780944 0 0)
(-0.03033756397623679 0 0)
(-0.04333861691996092 0 0)
(-0.05745700094062907 0 0)
(-0.07126628615569607 0 0)
(-0.08204997692201652 0 0)
(-0.09352514594552917 0 0)
(-0.1030991586614553 0 0)
(-0.109833880686586 0 0)
(-0.1107047717095725 0 0)
(-0.1105549214597971 0 0)
(-0.1069694102214375 0 0)
(-0.1022778141621663 0 0)
(-0.09572121847934076 0 0)
(-0.08894550800758848 0 0)
(-0.08000920092339225 0 0)
(-0.07231554906957963 0 0)
(-0.0627414293138794 0 0)
(-0.05133124828333832 0 0)
(-0.04157948511490193 0 0)
(-0.02900539118726289 0 0)
(-0.01718393826859631 0 0)
(-0.005037880689536567 0 0)
(0.008852690068440108 0 0)
(0.02209358044610451 0 0)
(0.03468252918747344 0 0)
(0.04729405796385294 0 0)
(0.05891890435639206 0 0)
(0.07062532205528714 0 0)
(0.08048592203849127 0 0)
(0.08896404582780176 0 0)
(0.09586874299959246 0 0)
(0.0982334274462671 0 0)
(0.09755425122013964 0 0)
(0.09571671070401916 0 0)
(0.0916054938218696 0 0)
(0.08547219124528958 0 0)
(0.07888374826389438 0 0)
(0.07231675104418019 0 0)
(0.0657062544439025 0 0)
(0.05608188794367638 0 0)
(0.04795955019102111 0 0)
(0.03878755345070875 0 0)
(0.02635574063799182 0 0)
(0.01627052980945691 0 0)
(0.004880116005209762 0 0)
(-0.009010805206994347 0 0)
(-0.02257609882247952 0 0)
(-0.03497997134096445 0 0)
(-0.0493846549033079 0 0)
(-0.06367651475062273 0 0)
(-0.07279124508108531 0 0)
(-0.08854960773418807 0 0)
(-0.09629495307591955 0 0)
(-0.1060858641429675 0 0)
(-0.1091637300989596 0 0)
(-0.1098749597848514 0 0)
(-0.1068868822685397 0 0)
(-0.1028085749378575 0 0)
(-0.09639590311573548 0 0)
(-0.08894038418820052 0 0)
(-0.07986843562531078 0 0)
(-0.07247869291276876 0 0)
(-0.06210669838401185 0 0)
(-0.05106848721844846 0 0)
(-0.04215911211315451 0 0)
(-0.02907372466630541 0 0)
(-0.01764076922141523 0 0)
(-0.007221927325843139 0 0)
(0.006377726013972747 0 0)
(0.0183273235731362 0 0)
(0.03085913727840111 0 0)
(0.0440266293690557 0 0)
(0.05475918051655233 0 0)
(0.06742674842536554 0 0)
(0.07813104020965041 0 0)
(0.08634808448483941 0 0)
(0.09531037780190156 0 0)
(0.1001777893950493 0 0)
(0.1016076153774898 0 0)
(0.09914456921195318 0 0)
(0.09612441720439628 0 0)
(0.0907281699640906 0 0)
(0.0840863362976049 0 0)
(0.07653764171040625 0 0)
(0.06985203275497837 0 0)
(0.06182911408584318 0 0)
(0.05239158963457481 0 0)
(0.04363402857448657 0 0)
(0.03272980795352233 0 0)
(0.02244607640030643 0 0)
(0.01228683678509513 0 0)
(-0.0009538201718262214 0 0)
(-0.01243932831420998 0 0)
(-0.02501263677410296 0 0)
(-0.03917853040715018 0 0)
(-0.0515890663731913 0 0)
(-0.06436574009459123 0 0)
(-0.07764977293299447 0 0)
(-0.08754827038364664 0 0)
(-0.09773669633797415 0 0)
(-0.1048165181056926 0 0)
(-0.1062899406457058 0 0)
(-0.1033908314600622 0 0)
(-0.102048910888214 0 0)
(-0.09474789021915973 0 0)
(-0.08718412649179404 0 0)
(-0.07870028607321748 0 0)
(-0.07115096479471585 0 0)
(-0.06073608012634772 0 0)
(-0.04894839675898829 0 0)
(-0.04039125266927677 0 0)
(-0.02816743483164761 0 0)
(-0.01574452500615041 0 0)
(-0.006616349776158853 0 0)
(0.006158369607914227 0 0)
(0.0186285097384362 0 0)
(0.02967630597358101 0 0)
(0.04135852426062249 0 0)
(0.05329983268022703 0 0)
(0.06472069788279328 0 0)
(0.0746389725596058 0 0)
(0.08438000447535708 0 0)
(0.09431378580607279 0 0)
(0.1006311626437537 0 0)
(0.1025568225157004 0 0)
(0.1021397319112914 0 0)
(0.1002016608854358 0 0)
(0.09445572128967428 0 0)
(0.08790957224207263 0 0)
(0.08047978312185773 0 0)
(0.07416707070975279 0 0)
(0.06559932802349264 0 0)
(0.05521056719667765 0 0)
(0.04729353473834817 0 0)
(0.0372717307665725 0 0)
(0.02586434247681002 0 0)
(0.01634298199715119 0 0)
(0.005120765864158096 0 0)
(-0.007362503410619297 0 0)
(-0.01955790223394067 0 0)
(-0.03159857896260744 0 0)
(-0.0444160203193211 0 0)
(-0.05695050451091642 0 0)
(-0.06966630931240723 0 0)
(-0.08131930849444324 0 0)
(-0.0915334325664732 0 0)
(-0.101323783263187 0 0)
(-0.1046861320641928 0 0)
(-0.1049975414888982 0 0)
(-0.103549977754137 0 0)
(-0.09748651918385257 0 0)
(-0.09146176887038072 0 0)
(-0.0836805102769356 0 0)
(-0.07441770779312902 0 0)
(-0.06568617894244626 0 0)
(-0.05461014080776963 0 0)
(-0.04293360122763983 0 0)
(-0.03246484018024091 0 0)
(-0.01962215582372911 0 0)
(-0.008652333728445191 0 0)
(0.001808339834605939 0 0)
(0.01497023781128382 0 0)
(0.02581395192289681 0 0)
(0.03637277943515108 0 0)
(0.04853971843061748 0 0)
(0.05902530689176995 0 0)
(0.07000984798265043 0 0)
(0.08065803580598656 0 0)
(0.08885000012033302 0 0)
(0.09753671802147749 0 0)
(0.1035898143261453 0 0)
(0.1021485049352803 0 0)
(0.1021976953666161 0 0)
(0.09838346081706729 0 0)
(0.09254478694094743 0 0)
(0.08484111623842944 0 0)
(0.07857302025110942 0 0)
(0.07074811321738177 0 0)
(0.0604607975852853 0 0)
(0.05166215484482685 0 0)
(0.04260901374195594 0 0)
(0.03067158214302582 0 0)
(0.02148553545725607 0 0)
(0.01082611753388698 0 0)
(-0.0009400625510985475 0 0)
(-0.01145877158326903 0 0)
(-0.0233362163559245 0 0)
(-0.0352778668266915 0 0)
(-0.04673728020097787 0 0)
(-0.0593702210244431 0 0)
(-0.0713087813485576 0 0)
(-0.07971671776525843 0 0)
(-0.09192673090419246 0 0)
(-0.09818460905749407 0 0)
(-0.09895595281832779 0 0)
(-0.09827287998844128 0 0)
(-0.09482463242540108 0 0)
(-0.08855931309771846 0 0)
(-0.08129650292885834 0 0)
(-0.07216050208659422 0 0)
(-0.06336619206987741 0 0)
(-0.05381426959464914 0 0)
(-0.04072484679944296 0 0)
(-0.03007650042030135 0 0)
(-0.01860865590735327 0 0)
(-0.004779619173923382 0 0)
(0.004869738298363904 0 0)
(0.01638732397576389 0 0)
(0.02895566635777394 0 0)
(0.03890048747545307 0 0)
(0.04961521627582135 0 0)
(0.060012592371548 0 0)
(0.07024934318725615 0 0)
(0.07944587111502838 0 0)
(0.08863739197327049 0 0)
(0.09680903307845981 0 0)
(0.1038757962540233 0 0)
(0.1059754497177583 0 0)
(0.1046853188299378 0 0)
(0.1041848975342736 0 0)
(0.09734548547695848 0 0)
(0.090317823320347 0 0)
(0.08289666081004275 0 0)
(0.07571880122765585 0 0)
(0.06753120632469119 0 0)
(0.05676356978726865 0 0)
(0.04860888561326917 0 0)
(0.03766847210127476 0 0)
(0.02623947941024031 0 0)
(0.01776971700830523 0 0)
(0.006712407673135137 0 0)
(-0.004526925145760816 0 0)
(-0.01577909797460303 0 0)
(-0.02701634222328681 0 0)
(-0.03786668105927826 0 0)
(-0.04908473633360241 0 0)
(-0.0604195997736477 0 0)
(-0.07119016490777731 0 0)
(-0.08047461372047354 0 0)
(-0.08953527944851514 0 0)
(-0.09383970210737705 0 0)
(-0.0924785788723687 0 0)
(-0.09278802962525673 0 0)
(-0.08746539123308041 0 0)
(-0.07983919733898499 0 0)
(-0.07257742418960332 0 0)
(-0.06244655823076006 0 0)
(-0.05336751519242926 0 0)
(-0.04207181066921126 0 0)
(-0.028162341301096 0 0)
(-0.01867406319844077 0 0)
(-0.004961925133355013 0 0)
(0.007951640766186808 0 0)
(0.01745458850596589 0 0)
(0.03055646527891566 0 0)
(0.04116471888174732 0 0)
(0.05098923061916784 0 0)
(0.06112539388445969 0 0)
(0.07081423249631273 0 0)
(0.08079110182603436 0 0)
(0.08857571637823133 0 0)
(0.09593338982726687 0 0)
(0.1033764748820525 0 0)
(0.1068452868976377 0 0)
(0.1079461420216905 0 0)
(0.1072954169932337 0 0)
(0.1035073970241326 0 0)
(0.09701233591433242 0 0)
(0.08988348779704339 0 0)
(0.08346124172002205 0 0)
(0.07466958388110692 0 0)
(0.06483843662005478 0 0)
(0.05568993059375073 0 0)
(0.04524482049803519 0 0)
(0.03481150048306277 0 0)
(0.0244745821777091 0 0)
(0.01413469033857766 0 0)
(0.003882996886399866 0 0)
(-0.007423728019499737 0 0)
(-0.01759398999127464 0 0)
(-0.02878870701982723 0 0)
(-0.03910937856529442 0 0)
(-0.04864242820655493 0 0)
(-0.06114585163433293 0 0)
(-0.06907145233951591 0 0)
(-0.07790585255694855 0 0)
(-0.08476247089786219 0 0)
(-0.08536731962680319 0 0)
(-0.08601750037107346 0 0)
(-0.08216571379691984 0 0)
(-0.07686935816505867 0 0)
(-0.06966078974570014 0 0)
(-0.06039138744081721 0 0)
(-0.05195528260005885 0 0)
(-0.04093397173888573 0 0)
(-0.02741647785707875 0 0)
(-0.01772665064025518 0 0)
(-0.004228141119224166 0 0)
(0.01018744181830095 0 0)
(0.02018225565234268 0 0)
(0.0323665389039762 0 0)
(0.0449071950801359 0 0)
(0.0542359319542214 0 0)
(0.0642612199283259 0 0)
(0.0740688574635377 0 0)
(0.08248449964980893 0 0)
(0.09040204034405949 0 0)
(0.0988206022540421 0 0)
(0.104471770196894 0 0)
(0.1097095505892627 0 0)
(0.1124889407699141 0 0)
(0.1102884245100733 0 0)
(0.1094454348918431 0 0)
(0.1032050023520508 0 0)
(0.09716256086647508 0 0)
(0.08903495654541804 0 0)
(0.08281714602715325 0 0)
(0.07258567444026928 0 0)
(0.06333586078349988 0 0)
(0.05482672395385185 0 0)
(0.04267019147979501 0 0)
(0.03246562000269212 0 0)
(0.02320016989427916 0 0)
(0.01173214397749203 0 0)
(0.002233422321101142 0 0)
(-0.008393186009315634 0 0)
(-0.01851970548062048 0 0)
(-0.02740002023103779 0 0)
(-0.03844182824044106 0 0)
(-0.04700140548496449 0 0)
(-0.05642832800900847 0 0)
(-0.06509477212080837 0 0)
(-0.07232470978720743 0 0)
(-0.07635521942418654 0 0)
(-0.07453970025271611 0 0)
(-0.07577898863700874 0 0)
(-0.0715929934613409 0 0)
(-0.06417089999622648 0 0)
(-0.05640918085100952 0 0)
(-0.04743454954566623 0 0)
(-0.03729440120149937 0 0)
(-0.02571138309546626 0 0)
(-0.01265019462083592 0 0)
(-0.0007155107158943775 0 0)
(0.01268365919263025 0 0)
(0.02638786241992402 0 0)
(0.03756527814791387 0 0)
(0.04940816879607351 0 0)
(0.0612550991565477 0 0)
(0.07023997781988012 0 0)
(0.07926610279257168 0 0)
(0.08910679137802476 0 0)
(0.09615518453172867 0 0)
(0.1015280458805343 0 0)
(0.1103820414840563 0 0)
(0.1146970894120214 0 0)
(0.1159859248255586 0 0)
(0.1169535979036233 0 0)
(0.1156707779922716 0 0)
(0.1121143013476761 0 0)
(0.1050696555236524 0 0)
(0.09861396420120562 0 0)
(0.0921177260443385 0 0)
(0.08419414285814918 0 0)
(0.07392077742985091 0 0)
(0.06522618260593728 0 0)
(0.05520384648687023 0 0)
(0.04353149276044809 0 0)
(0.03361349785255387 0 0)
(0.02349063885830901 0 0)
(0.01226934312104353 0 0)
(0.002457560835628272 0 0)
(-0.007488119262149023 0 0)
(-0.01761698200354784 0 0)
(-0.02617747274759939 0 0)
(-0.03562183745622692 0 0)
(-0.04479267366897885 0 0)
(-0.05130273318980068 0 0)
(-0.05921713512380835 0 0)
(-0.06505387276594229 0 0)
(-0.06467734116663358 0 0)
(-0.06647029768237651 0 0)
(-0.06291774929819145 0 0)
(-0.05740777984988649 0 0)
(-0.05082280739129351 0 0)
(-0.04275691177957806 0 0)
(-0.03338962229642407 0 0)
(-0.02313008483939216 0 0)
(-0.009733407177636537 0 0)
(0.002186133856644253 0 0)
(0.01506912571068488 0 0)
(0.0301548960430108 0 0)
(0.04139985518639629 0 0)
(0.05329532901162658 0 0)
(0.06616584624773063 0 0)
(0.07575694599193153 0 0)
(0.08558090311889402 0 0)
(0.09432472193633344 0 0)
(0.1015532798934646 0 0)
(0.1088780615784464 0 0)
(0.1141341269020367 0 0)
(0.119136353521618 0 0)
(0.1230828351523028 0 0)
(0.1232336452415031 0 0)
(0.122458962522173 0 0)
(0.1203663783188305 0 0)
(0.114995598467182 0 0)
(0.1080512863306024 0 0)
(0.1015402921526107 0 0)
(0.09475519569153761 0 0)
(0.08580970384879369 0 0)
(0.07648745800562388 0 0)
(0.06799009189297138 0 0)
(0.05617347602706062 0 0)
(0.04516560225674975 0 0)
(0.03532605867365944 0 0)
(0.02404765177554043 0 0)
(0.01316065713133285 0 0)
(0.0023273185915649 0 0)
(-0.007115322329835525 0 0)
(-0.01648871775704435 0 0)
(-0.02614332918098673 0 0)
(-0.03343241482034481 0 0)
(-0.04097143941576249 0 0)
(-0.04954989042947716 0 0)
(-0.05480050613179518 0 0)
(-0.05688148839931082 0 0)
(-0.0579074229269605 0 0)
(-0.05772874170621879 0 0)
(-0.05328667982497417 0 0)
(-0.04756592291074143 0 0)
(-0.04156743023845566 0 0)
(-0.03181754299148114 0 0)
(-0.02262229614241983 0 0)
(-0.01216494461225712 0 0)
(0.001181087143622838 0 0)
(0.01233158317377493 0 0)
(0.02772292006889163 0 0)
(0.04173835614467275 0 0)
(0.05287138476258147 0 0)
(0.06641736115540284 0 0)
(0.07858077058673678 0 0)
(0.08721187155708221 0 0)
(0.09680717586776448 0 0)
(0.1062282930888899 0 0)
(0.1119471571075055 0 0)
(0.1164006964814665 0 0)
(0.1234770015342299 0 0)
(0.1259172047804608 0 0)
(0.1263718919624708 0 0)
(0.1267923892987019 0 0)
(0.1239156496316635 0 0)
(0.1192963264246899 0 0)
(0.113419788275938 0 0)
(0.1073915813080385 0 0)
(0.0989227151744866 0 0)
(0.09381058534496108 0 0)
(0.08522378872296296 0 0)
(0.07205567506509238 0 0)
(0.06632749953818974 0 0)
(0.05590343051723665 0 0)
(0.0418982901919332 0 0)
(0.03598897044379031 0 0)
(0.02405308201456824 0 0)
(0.01162753326818938 0 0)
(0.004595720005450573 0 0)
(-0.006080097423322272 0 0)
(-0.01486330087417677 0 0)
(-0.02071254162593236 0 0)
(-0.03138450299869898 0 0)
(-0.03549051397969101 0 0)
(-0.04154527579643712 0 0)
(-0.04438546577105071 0 0)
(-0.04624931598994873 0 0)
(-0.04512154327863938 0 0)
(-0.04376589526159679 0 0)
(-0.03827751407244392 0 0)
(-0.03355969190834286 0 0)
(-0.02482447658925751 0 0)
(-0.01609153876581744 0 0)
(-0.006786991404437536 0 0)
(0.006370891704847986 0 0)
(0.0172773908995216 0 0)
(0.03039245503615674 0 0)
(0.04530222429958398 0 0)
(0.05734557082021915 0 0)
(0.07099751437631527 0 0)
(0.08314607138835399 0 0)
(0.09348095710315496 0 0)
(0.1046114887942938 0 0)
(0.1120183377243498 0 0)
(0.1188453700354718 0 0)
(0.1266447969721884 0 0)
(0.1298245620871806 0 0)
(0.1331437567344867 0 0)
(0.135645780113237 0 0)
(0.1344968990139055 0 0)
(0.1332183644495156 0 0)
(0.1296648131970633 0 0)
(0.1244105881248586 0 0)
(0.1168720197548755 0 0)
(0.1110394467039809 0 0)
(0.1036768241486863 0 0)
(0.09581160145317268 0 0)
(0.08646557155811946 0 0)
(0.0771819417091304 0 0)
(0.06732112792436983 0 0)
(0.05646056429680341 0 0)
(0.04689408656715265 0 0)
(0.03542890171723963 0 0)
(0.02540971856885308 0 0)
(0.01501412455493358 0 0)
(0.004632361804615025 0 0)
(-0.004195681499429588 0 0)
(-0.01275483017101367 0 0)
(-0.02000995543155264 0 0)
(-0.0262247465720169 0 0)
(-0.03359461326804583 0 0)
(-0.03663763342656132 0 0)
(-0.03731313472446959 0 0)
(-0.03762904484004062 0 0)
(-0.03663627255400023 0 0)
(-0.03190447047824674 0 0)
(-0.0272451012979186 0 0)
(-0.02031312407985136 0 0)
(-0.01229173182828711 0 0)
(-0.004608915859627361 0 0)
(0.006623326308417315 0 0)
(0.01835624829065716 0 0)
(0.02940674505981139 0 0)
(0.04397557453399399 0 0)
(0.05811101975378131 0 0)
(0.07002472277168263 0 0)
(0.08371305272025596 0 0)
(0.09639442212744971 0 0)
(0.1059809261710044 0 0)
(0.1161889579724886 0 0)
(0.124976788442737 0 0)
(0.1306025272714232 0 0)
(0.1356823876085955 0 0)
(0.1401713612527012 0 0)
(0.1414933400469775 0 0)
(0.1411763179270372 0 0)
(0.1395863685830384 0 0)
(0.1363009197053885 0 0)
(0.1303025455962753 0 0)
(0.1243932943154649 0 0)
(0.1179028274727826 0 0)
(0.1103857000155347 0 0)
(0.1038943995423132 0 0)
(0.09619269733184277 0 0)
(0.08624989641248797 0 0)
(0.07832367890569375 0 0)
(0.06907107929166242 0 0)
(0.0579998426890445 0 0)
(0.05014102624760312 0 0)
(0.03990400918352002 0 0)
(0.0295809376331465 0 0)
(0.02091136411602515 0 0)
(0.0109665542816894 0 0)
(0.002926722831726462 0 0)
(-0.003622950626269736 0 0)
(-0.01275868640536414 0 0)
(-0.01703320921428189 0 0)
(-0.02146325025195437 0 0)
(-0.02399390963999093 0 0)
(-0.02289040943442362 0 0)
(-0.02249246588041351 0 0)
(-0.01933603767154836 0 0)
(-0.01445880728404236 0 0)
(-0.006683439815141904 0 0)
(-0.0008021858238002356 0 0)
(0.007907046901868353 0 0)
(0.01674400191516974 0 0)
(0.02631292801010131 0 0)
(0.03812670108310073 0 0)
(0.04953036473046925 0 0)
(0.06289419230086533 0 0)
(0.07738148739184403 0 0)
(0.0898685180881852 0 0)
(0.1025271201254501 0 0)
(0.1154061468859156 0 0)
(0.1256145198332872 0 0)
(0.1346170371908151 0 0)
(0.1427266111002659 0 0)
(0.1482352800781639 0 0)
(0.1520918323592017 0 0)
(0.1545775641306502 0 0)
(0.1550109458068948 0 0)
(0.1536172290528662 0 0)
(0.1508252487507472 0 0)
(0.1460713027749915 0 0)
(0.1410083490903602 0 0)
(0.1332014268406793 0 0)
(0.1278195144462927 0 0)
(0.1204748949485101 0 0)
(0.112383518778957 0 0)
(0.1054739568970777 0 0)
(0.0951339967748953 0 0)
(0.08598583356110251 0 0)
(0.07747729803279164 0 0)
(0.06619329579404873 0 0)
(0.05659701720574976 0 0)
(0.04659557986234006 0 0)
(0.03625655079979187 0 0)
(0.02711826897436647 0 0)
(0.01810090148137838 0 0)
(0.009838108389542227 0 0)
(0.002567485060350775 0 0)
(-0.003369335774504577 0 0)
(-0.009084764927910384 0 0)
(-0.01149608823048652 0 0)
(-0.01113620471738433 0 0)
(-0.01117219874430306 0 0)
(-0.009498358718936794 0 0)
(-0.003373110846368593 0 0)
(0.002292707402162232 0 0)
(0.009205469049477315 0 0)
(0.01800560564203135 0 0)
(0.02580462658455725 0 0)
(0.03467162161334533 0 0)
(0.04652046969019107 0 0)
(0.05625050320985864 0 0)
(0.06806164342772739 0 0)
(0.08179161286650119 0 0)
(0.09364698845777482 0 0)
(0.1066613463084607 0 0)
(0.1193468729731052 0 0)
(0.1301140551484833 0 0)
(0.1409054219750521 0 0)
(0.1500155388921865 0 0)
(0.1564888704205791 0 0)
(0.1617714653772639 0 0)
(0.1653450968904655 0 0)
(0.1665152082260269 0 0)
(0.1663763529383818 0 0)
(0.1648141363300757 0 0)
(0.1593852157747498 0 0)
(0.1553881802206598 0 0)
(0.1484383891200176 0 0)
(0.1425939185355289 0 0)
(0.1350174719889956 0 0)
(0.1280881636186031 0 0)
(0.1202137589725688 0 0)
(0.1113965763641138 0 0)
(0.1028334878535903 0 0)
(0.09359869390015134 0 0)
(0.08171071684152342 0 0)
(0.07240156312402178 0 0)
(0.06284719787374621 0 0)
(0.05092827979159016 0 0)
(0.04096338962088701 0 0)
(0.03176607894472331 0 0)
(0.02258747168206923 0 0)
(0.0144949530128396 0 0)
(0.008539859763558347 0 0)
(0.001269848980764515 0 0)
(-0.002255117484589777 0 0)
(-0.003100328680441534 0 0)
(-0.003968324525402037 0 0)
(-0.002624261727374467 0 0)
(0.0007004587713820841 0 0)
(0.006015816218063833 0 0)
(0.0131108355972294 0 0)
(0.0208568102694619 0 0)
(0.02934377899897674 0 0)
(0.03860212070220159 0 0)
(0.04894934671036751 0 0)
(0.0596997047426305 0 0)
(0.07015742177323836 0 0)
(0.0824347736767098 0 0)
(0.09411674159088482 0 0)
(0.1049525905137133 0 0)
(0.1168706601943333 0 0)
(0.128763954404413 0 0)
(0.139770195182317 0 0)
(0.1494343153744519 0 0)
(0.1584866205912431 0 0)
(0.1655807556302517 0 0)
(0.170311578837494 0 0)
(0.1733973359645652 0 0)
(0.1733612671865863 0 0)
(0.1710615714019587 0 0)
(0.1668129340985279 0 0)
(0.1606564266486735 0 0)
(0.1544945006231707 0 0)
(0.1472370985190857 0 0)
(0.1396658040090224 0 0)
(0.1322313004385336 0 0)
(0.1252300787043976 0 0)
(0.1174310665842961 0 0)
(0.108707481365705 0 0)
(0.1023873872865549 0 0)
(0.09235251317955968 0 0)
(0.08218409633954293 0 0)
(0.07516068935539395 0 0)
(0.06439782601548595 0 0)
(0.05398085573305487 0 0)
(0.0456623976857622 0 0)
(0.03670128055307011 0 0)
(0.0284042480646159 0 0)
(0.02122267574154661 0 0)
(0.01508205814129879 0 0)
(0.01037503258951877 0 0)
(0.007680232642463589 0 0)
(0.007858622354561298 0 0)
(0.008784078297523678 0 0)
(0.009952445140022297 0 0)
(0.01450213229929386 0 0)
(0.02162409294080323 0 0)
(0.02801367592988192 0 0)
(0.03566499590067312 0 0)
(0.04480528562961909 0 0)
(0.05410319769204985 0 0)
(0.06506331227282645 0 0)
(0.07740037143450545 0 0)
(0.08745999422424282 0 0)
(0.09973829440906475 0 0)
(0.1126663137198927 0 0)
(0.1216794151845801 0 0)
(0.1334568835204059 0 0)
(0.1445525467756721 0 0)
(0.1532628736071339 0 0)
(0.1636423836320455 0 0)
(0.1713250415696028 0 0)
(0.1765595111529685 0 0)
(0.1825994697196169 0 0)
(0.1848105673688798 0 0)
(0.1833422375448842 0 0)
(0.1803159242721967 0 0)
(0.1744596676922029 0 0)
(0.1688390899417248 0 0)
(0.162252723563845 0 0)
(0.1528996861900208 0 0)
(0.1462655306666974 0 0)
(0.1384983209154091 0 0)
(0.1318528528223494 0 0)
(0.1237911059342306 0 0)
(0.1163013934189285 0 0)
(0.1076937077589736 0 0)
(0.09715060117401099 0 0)
(0.08876123164417125 0 0)
(0.07822265277394588 0 0)
(0.06712130885303141 0 0)
(0.0569075192764302 0 0)
(0.04753307124890581 0 0)
(0.03795699611165983 0 0)
(0.02986675792917574 0 0)
(0.02336605809971275 0 0)
(0.01669685830195612 0 0)
(0.0135016417133832 0 0)
(0.0122971654070002 0 0)
(0.01346148252419478 0 0)
(0.01378463002643552 0 0)
(0.01825655542517642 0 0)
(0.02308425487003684 0 0)
(0.03002736213948413 0 0)
(0.03706576254056045 0 0)
(0.04588707481133683 0 0)
(0.05436224286227707 0 0)
(0.06425149244169592 0 0)
(0.07563770013604013 0 0)
(0.0865835076038195 0 0)
(0.09885058830879515 0 0)
(0.1111182549597437 0 0)
(0.1221809970508032 0 0)
(0.133716173121616 0 0)
(0.1442686161285635 0 0)
(0.1533109286050044 0 0)
(0.162324069936964 0 0)
(0.1698315851310819 0 0)
(0.1738337673151981 0 0)
(0.1799097944449827 0 0)
(0.1842026496574579 0 0)
(0.1852621258374876 0 0)
(0.1867506880340649 0 0)
(0.1844177630698768 0 0)
(0.1790920188841589 0 0)
(0.1715525761337724 0 0)
(0.1623639060704059 0 0)
(0.152260526590661 0 0)
(0.1451058399833955 0 0)
(0.1360585823656682 0 0)
(0.1318779768983523 0 0)
(0.1244434373069067 0 0)
(0.1152100762019899 0 0)
(0.1071710850883457 0 0)
(0.09482412967010899 0 0)
(0.08325416495923173 0 0)
(0.07166389176061233 0 0)
(0.05861828229109035 0 0)
(0.04774964348439108 0 0)
(0.03782495152478774 0 0)
(0.03019508501122837 0 0)
(0.02287900056567972 0 0)
(0.01552666021303828 0 0)
(0.0116119300472029 0 0)
(0.01023505332277925 0 0)
(0.01116870450339322 0 0)
(0.01101737936421096 0 0)
(0.01389696594984824 0 0)
(0.01854700131372395 0 0)
(0.02496002595091087 0 0)
(0.03096928547010942 0 0)
(0.0395184623436171 0 0)
(0.04830023220971259 0 0)
(0.05739640288489957 0 0)
(0.06669472363746748 0 0)
(0.07831003532289875 0 0)
(0.09131624713391066 0 0)
(0.1019641699777069 0 0)
(0.1120068366130689 0 0)
(0.1268182036053213 0 0)
(0.1347311166533905 0 0)
(0.1498919091117711 0 0)
)
;

boundaryField
{
    inlet
    {
        type            zeroGradient;
    }
    outlet
    {
        type            pressureInletOutletVelocity;
        value           uniform (0.1498919091117711 0 0);
    }
    frontAndBack
    {
        type            empty;
    }
}


// ************************************************************************* //
