/*--------------------------------*- C++ -*----------------------------------*\
| =========                 |                                                 |
| \\      /  F ield         | OpenFOAM: The Open Source CFD Toolbox           |
|  \\    /   O peration     | Version:  v2012                                 |
|   \\  /    A nd           | Website:  www.openfoam.com                      |
|    \\/     M anipulation  |                                                 |
\*---------------------------------------------------------------------------*/
FoamFile
{
    version     2.0;
    format      ascii;
    class       volVectorField;
    location    "0.015";
    object      UMean;
}
// * * * * * * * * * * * * * * * * * * * * * * * * * * * * * * * * * * * * * //

dimensions      [0 1 -1 0 0 0 0];


internalField   nonuniform List<vector> 
1000
(
(-9.888481132268377e-05 0 0)
(-3.835493830653722e-05 0 0)
(-4.306335860448683e-05 0 0)
(-1.815624307478807e-05 0 0)
(4.534738315024986e-05 0 0)
(7.243316671994406e-05 0 0)
(0.000129565915349483 0 0)
(0.0002294996864465629 0 0)
(0.0002476834829177924 0 0)
(0.0003479348128901543 0 0)
(0.0004380025914142041 0 0)
(0.0004950294945031765 0 0)
(0.0005767498015128795 0 0)
(0.0006977526158052774 0 0)
(0.0007271233875718032 0 0)
(0.0007944915501024249 0 0)
(0.0009194145473272228 0 0)
(0.0009619025566815181 0 0)
(0.0009661827709660387 0 0)
(0.0010534606302351 0 0)
(0.001099346176539732 0 0)
(0.001106874690464004 0 0)
(0.001088129722968984 0 0)
(0.001131875921469945 0 0)
(0.001131592027732872 0 0)
(0.0010856560480489 0 0)
(0.001026662564423032 0 0)
(0.00103834575954918 0 0)
(0.0009874156117894034 0 0)
(0.0008624141957381572 0 0)
(0.0008432879137373605 0 0)
(0.0007945163093127578 0 0)
(0.0006592835870205889 0 0)
(0.0005887349758227254 0 0)
(0.0005641326391160401 0 0)
(0.0004330796740003946 0 0)
(0.0003402239944330171 0 0)
(0.0003112964832380818 0 0)
(0.0002225819492100672 0 0)
(0.0001399472501363875 0 0)
(8.717209273866644e-05 0 0)
(3.786683931806475e-05 0 0)
(-4.655130553852821e-06 0 0)
(-3.829396960364678e-05 0 0)
(-9.037675841855756e-05 0 0)
(-7.601874012832616e-05 0 0)
(-7.395114193772229e-05 0 0)
(-0.0001041748011596342 0 0)
(-7.381685891562185e-05 0 0)
(-1.135930541032952e-05 0 0)
(-1.8811056785778e-05 0 0)
(2.710750088934297e-05 0 0)
(0.0001211514067086393 0 0)
(0.0001525503685430194 0 0)
(0.0002066203558347487 0 0)
(0.0003242148189014159 0 0)
(0.000375836005775951 0 0)
(0.0004347956671793456 0 0)
(0.0005541626772194665 0 0)
(0.0006037602645988557 0 0)
(0.0006791711765716201 0 0)
(0.0007724801427022739 0 0)
(0.0008266156286577263 0 0)
(0.0008753450162561679 0 0)
(0.0009778482844437137 0 0)
(0.0009956220872498654 0 0)
(0.001013123122992184 0 0)
(0.001079014985983804 0 0)
(0.001098883681487794 0 0)
(0.001065381162372039 0 0)
(0.001077245667142507 0 0)
(0.001074674054948439 0 0)
(0.001027243884842177 0 0)
(0.0009886744841765603 0 0)
(0.0009507495439623958 0 0)
(0.0008791827068434287 0 0)
(0.0008140317041609199 0 0)
(0.0007498217845858401 0 0)
(0.0006606508425056962 0 0)
(0.0005799527621801825 0 0)
(0.0004914209690967155 0 0)
(0.0004180819908203503 0 0)
(0.0003284838924443762 0 0)
(0.0002361827714693663 0 0)
(0.0001745040140746421 0 0)
(9.788438727567164e-05 0 0)
(1.597610664203849e-05 0 0)
(-3.938667564668117e-05 0 0)
(-9.530727688124375e-05 0 0)
(-0.0001510120040737709 0 0)
(-0.0001753003358257223 0 0)
(-0.0002230182618891521 0 0)
(-0.0002344308783349416 0 0)
(-0.0002330901976968707 0 0)
(-0.0002414627422961313 0 0)
(-0.0002374036467900579 0 0)
(-0.0001979313582620951 0 0)
(-0.0001748031010168834 0 0)
(-0.0001361116384097433 0 0)
(-9.013147211451795e-05 0 0)
(-3.921264240145417e-05 0 0)
(2.524715024074576e-05 0 0)
(9.37231246238781e-05 0 0)
(0.0001472805913030293 0 0)
(0.0002129992740386119 0 0)
(0.0003028880321226623 0 0)
(0.0003507938126956474 0 0)
(0.000406520405113711 0 0)
(0.000504045522779576 0 0)
(0.0005450168571816708 0 0)
(0.000579400446382748 0 0)
(0.0006672085587909944 0 0)
(0.000704136042263158 0 0)
(0.0006905725547577601 0 0)
(0.000760459909592526 0 0)
(0.0007893727479010256 0 0)
(0.0007418018212999442 0 0)
(0.0007714606369985739 0 0)
(0.0007867254048367215 0 0)
(0.000718185199573027 0 0)
(0.0006844957242423297 0 0)
(0.0006897317220678407 0 0)
(0.0006078163742939453 0 0)
(0.0005415837286142692 0 0)
(0.0005209337205240861 0 0)
(0.0004362417980437396 0 0)
(0.0003424089768652646 0 0)
(0.000313259919862212 0 0)
(0.0002339609057068617 0 0)
(0.0001261499939298684 0 0)
(0.000105402082478976 0 0)
(3.21808969980072e-05 0 0)
(-6.655018187267312e-05 0 0)
(-8.801032501526895e-05 0 0)
(-0.0001358646007256915 0 0)
(-0.000227601547685535 0 0)
(-0.0002317886260483939 0 0)
(-0.0002510529661533202 0 0)
(-0.0003268463543563498 0 0)
(-0.0003097638407023012 0 0)
(-0.0002934055892293428 0 0)
(-0.0003292499858176738 0 0)
(-0.0003166333652988715 0 0)
(-0.0002471994121266477 0 0)
(-0.0002470030087714948 0 0)
(-0.0002283631933733703 0 0)
(-0.0001308808267359268 0 0)
(-0.0001025073136103678 0 0)
(-5.813657614693343e-05 0 0)
(3.352406620657353e-05 0 0)
(9.144558261565031e-05 0 0)
(0.0001246126908966814 0 0)
(0.000235077191048915 0 0)
(0.0002838887012579373 0 0)
(0.0003237509304925432 0 0)
(0.000416583769199742 0 0)
(0.0004659675411086867 0 0)
(0.0004906823609705092 0 0)
(0.000565682731155174 0 0)
(0.0006002590072587959 0 0)
(0.0005984746643197692 0 0)
(0.0006499944902421085 0 0)
(0.0006693202400408484 0 0)
(0.0006315593941519875 0 0)
(0.0006514508712772991 0 0)
(0.0006507911102642651 0 0)
(0.0005868213767657998 0 0)
(0.000561482825957401 0 0)
(0.0005518064243858639 0 0)
(0.0004502021724446488 0 0)
(0.000408395122698974 0 0)
(0.0003695702331767934 0 0)
(0.0002604182099588534 0 0)
(0.0002037134515001635 0 0)
(0.00015589004587861 0 0)
(5.325579475554241e-05 0 0)
(-1.474995291840443e-05 0 0)
(-4.72710006331933e-05 0 0)
(-0.0001400175245780568 0 0)
(-0.0002036513340978796 0 0)
(-0.000238022895508792 0 0)
(-0.0002925414090316487 0 0)
(-0.0003514709412225935 0 0)
(-0.0003653271147779771 0 0)
(-0.0003968713845136617 0 0)
(-0.0004348198268956148 0 0)
(-0.000417284206542588 0 0)
(-0.0004103245239907152 0 0)
(-0.0004418916357097176 0 0)
(-0.0003861015228852657 0 0)
(-0.0003440332594926321 0 0)
(-0.0003533363264555827 0 0)
(-0.0002790915154932041 0 0)
(-0.0002116726106725129 0 0)
(-0.0001801341767352571 0 0)
(-0.0001144719311264002 0 0)
(-2.969178738753962e-05 0 0)
(1.901462522559165e-05 0 0)
(7.054571979632801e-05 0 0)
(0.0001658885686903993 0 0)
(0.0002168073402027814 0 0)
(0.0002655769502621378 0 0)
(0.0003378544370107615 0 0)
(0.0003920931425948819 0 0)
(0.0004280162590612017 0 0)
(0.0004699428835066326 0 0)
(0.0005163508661885889 0 0)
(0.0005279149608691778 0 0)
(0.0005430042204086507 0 0)
(0.0005590368674095649 0 0)
(0.0005606661797133145 0 0)
(0.0005409460388777329 0 0)
(0.0005165435869574851 0 0)
(0.0004989440620044394 0 0)
(0.0004499439074721253 0 0)
(0.0003887659264172716 0 0)
(0.0003518137810172505 0 0)
(0.0002872328750246465 0 0)
(0.0002017829299642565 0 0)
(0.000150712777890465 0 0)
(8.0623670827206e-05 0 0)
(-7.15244863174707e-06 0 0)
(-6.800887501617631e-05 0 0)
(-0.0001236116369706975 0 0)
(-0.0002046697390567278 0 0)
(-0.0002613812880778937 0 0)
(-0.0003079361082541438 0 0)
(-0.0003674840899000939 0 0)
(-0.0004128637127750136 0 0)
(-0.0004421294687754838 0 0)
(-0.0004816046255159455 0 0)
(-0.0005029580707920637 0 0)
(-0.0005073617269643988 0 0)
(-0.0005111283571475671 0 0)
(-0.0005065932334956526 0 0)
(-0.0004909381295951195 0 0)
(-0.0004601252851002959 0 0)
(-0.0004232182790656516 0 0)
(-0.0004027515858275125 0 0)
(-0.0003221031158301251 0 0)
(-0.0002693156494205558 0 0)
(-0.000225825533589037 0 0)
(-0.0001457496065891515 0 0)
(-7.560623339774308e-05 0 0)
(-3.071286713472236e-05 0 0)
(5.007840868607603e-05 0 0)
(0.0001216589950033017 0 0)
(0.0001652805057632875 0 0)
(0.000242056194219904 0 0)
(0.000290895439001932 0 0)
(0.000342383268742408 0 0)
(0.0003818416603466946 0 0)
(0.000432332200873908 0 0)
(0.0004487609878398538 0 0)
(0.0004681317186925434 0 0)
(0.0004897897307350198 0 0)
(0.0004962599291897934 0 0)
(0.0004776294424829953 0 0)
(0.0004718024123198265 0 0)
(0.0004512045029281375 0 0)
(0.0004025269067327172 0 0)
(0.0003614421264292781 0 0)
(0.0003147585265776949 0 0)
(0.0002586143106850029 0 0)
(0.0001853915139971247 0 0)
(0.0001130743687772385 0 0)
(6.762783506133572e-05 0 0)
(-2.824040264794474e-05 0 0)
(-9.385156141359304e-05 0 0)
(-0.0001409409774046845 0 0)
(-0.0002195743986317626 0 0)
(-0.0002900706426187405 0 0)
(-0.0003201175487414813 0 0)
(-0.0003870148311268088 0 0)
(-0.0004365733900738004 0 0)
(-0.0004660877214654931 0 0)
(-0.000494440000142877 0 0)
(-0.0005282488917383735 0 0)
(-0.0005382360618463142 0 0)
(-0.0005424302994440727 0 0)
(-0.0005376916074874037 0 0)
(-0.0005248605230640315 0 0)
(-0.0004919758982334919 0 0)
(-0.0004766835550532492 0 0)
(-0.0004200657472743678 0 0)
(-0.0003792657633951036 0 0)
(-0.0003124223453392449 0 0)
(-0.0002603354821840498 0 0)
(-0.0001897601197988734 0 0)
(-0.0001157457888870494 0 0)
(-6.39128779241225e-05 0 0)
(1.249980511100005e-05 0 0)
(8.828054897865565e-05 0 0)
(0.0001411041037909183 0 0)
(0.0002081490379458672 0 0)
(0.0002707413105361035 0 0)
(0.0003189502712519876 0 0)
(0.0003782336532887287 0 0)
(0.0004086185125196045 0 0)
(0.0004470886779777455 0 0)
(0.0004743497556223182 0 0)
(0.0004885098110848761 0 0)
(0.0004983492900033277 0 0)
(0.0005076048373673799 0 0)
(0.0004931711179178088 0 0)
(0.0004585578007491178 0 0)
(0.0004574851170016225 0 0)
(0.0004053513180922456 0 0)
(0.0003467947685692164 0 0)
(0.0003056050230199235 0 0)
(0.0002476030249649084 0 0)
(0.0001666020156833068 0 0)
(0.0001119009634689413 0 0)
(4.474410990345509e-05 0 0)
(-5.353730339715088e-05 0 0)
(-8.505801119704573e-05 0 0)
(-0.0001532370187917814 0 0)
(-0.0002399510423066945 0 0)
(-0.0002771256165053241 0 0)
(-0.0003247379850777775 0 0)
(-0.0003847706020970851 0 0)
(-0.0004269103713982767 0 0)
(-0.0004415105061150176 0 0)
(-0.000483576956271562 0 0)
(-0.0005016355354455505 0 0)
(-0.0005072404169644665 0 0)
(-0.0004935232741677689 0 0)
(-0.0005002032182998395 0 0)
(-0.0004655071174493374 0 0)
(-0.0004480680328950683 0 0)
(-0.0004109495645552793 0 0)
(-0.0003556391559286236 0 0)
(-0.0003087352906992752 0 0)
(-0.0002474795445851177 0 0)
(-0.0001776238871423715 0 0)
(-0.0001191020640689721 0 0)
(-4.890801870461978e-05 0 0)
(2.76368019480413e-05 0 0)
(8.140322653364165e-05 0 0)
(0.0001484926750656919 0 0)
(0.0002182910032630837 0 0)
(0.0002854839565437602 0 0)
(0.000330219014113215 0 0)
(0.0003722777369795176 0 0)
(0.0004407669561758642 0 0)
(0.0004641532789924886 0 0)
(0.0004866584616453346 0 0)
(0.0005210126036231382 0 0)
(0.0005231766042556669 0 0)
(0.0005281964467580218 0 0)
(0.0005375374006378077 0 0)
(0.0005147727198301117 0 0)
(0.0004772640889975066 0 0)
(0.0004629188340344112 0 0)
(0.00041215784322331 0 0)
(0.0003598509449147699 0 0)
(0.0003043017688860519 0 0)
(0.0002448832436342875 0 0)
(0.0001667245175230528 0 0)
(0.000109106580095404 0 0)
(3.595681033854536e-05 0 0)
(-3.516252350850288e-05 0 0)
(-9.031431942900681e-05 0 0)
(-0.0001663032670215261 0 0)
(-0.0002069311748216478 0 0)
(-0.0002631264303408784 0 0)
(-0.0003231253618875651 0 0)
(-0.0003554352963082393 0 0)
(-0.0003802141838740656 0 0)
(-0.0004237970833203996 0 0)
(-0.0004426973290388163 0 0)
(-0.0004364545851818215 0 0)
(-0.0004562623295718705 0 0)
(-0.0004428007661606603 0 0)
(-0.0004124407136653827 0 0)
(-0.0003883481786539743 0 0)
(-0.0003767423761332455 0 0)
(-0.0003046727146444711 0 0)
(-0.0002564711095738257 0 0)
(-0.0002081364986744486 0 0)
(-0.0001328078009004427 0 0)
(-6.196014056400005e-05 0 0)
(2.827651890035312e-06 0 0)
(5.852053525444157e-05 0 0)
(0.0001566466649202277 0 0)
(0.0002063993781124243 0 0)
(0.0002680730089242788 0 0)
(0.0003547375799284723 0 0)
(0.0004005346004254206 0 0)
(0.0004536448116460867 0 0)
(0.0005109679995251026 0 0)
(0.0005600934840745304 0 0)
(0.0005678722220774825 0 0)
(0.0006231967825736444 0 0)
(0.0006286998486563426 0 0)
(0.0006363023210175751 0 0)
(0.0006463237784040733 0 0)
(0.0006445184599989741 0 0)
(0.0006085379493619553 0 0)
(0.0005914535601000569 0 0)
(0.0005584982690070518 0 0)
(0.000506303418051352 0 0)
(0.0004526528541825925 0 0)
(0.0004082179465420766 0 0)
(0.0003364699166085855 0 0)
(0.0002515026453328315 0 0)
(0.0002190755129404692 0 0)
(0.000126861410678492 0 0)
(6.256503588496257e-05 0 0)
(1.180837033460807e-05 0 0)
(-5.378879617460742e-05 0 0)
(-9.870404032442602e-05 0 0)
(-0.0001580224247382787 0 0)
(-0.0001863607741525334 0 0)
(-0.0002318808217440813 0 0)
(-0.0002650887109442206 0 0)
(-0.0002643454861598912 0 0)
(-0.0002944793813380289 0 0)
(-0.0003071707651393935 0 0)
(-0.0002760468124656194 0 0)
(-0.0002574478473461691 0 0)
(-0.0002517492848190823 0 0)
(-0.0002142554852553445 0 0)
(-0.000161242108220234 0 0)
(-0.0001171382902633406 0 0)
(-6.773298413084658e-05 0 0)
(2.117678183474449e-05 0 0)
(7.549623390171094e-05 0 0)
(0.0001345478268006365 0 0)
(0.0002281785715974729 0 0)
(0.0002902730353440094 0 0)
(0.0003487474746711188 0 0)
(0.0004369066806126995 0 0)
(0.0005034366074624858 0 0)
(0.0005569757760580969 0 0)
(0.0006212506609874427 0 0)
(0.0006803849889839346 0 0)
(0.0007240125710741676 0 0)
(0.0007624077071355737 0 0)
(0.0008051675588448269 0 0)
(0.0008153452768921064 0 0)
(0.0008342145453519335 0 0)
(0.000851441360250059 0 0)
(0.0008424812530039344 0 0)
(0.000833456873127673 0 0)
(0.0008118806798909502 0 0)
(0.0007852023686242326 0 0)
(0.0007387686235467903 0 0)
(0.0006948489096338327 0 0)
(0.0006514843167361666 0 0)
(0.0005778749531684722 0 0)
(0.0005218183637666884 0 0)
(0.0004555959457850146 0 0)
(0.0003877602229442741 0 0)
(0.0003257558463381706 0 0)
(0.0002660420920522235 0 0)
(0.0002005472017592782 0 0)
(0.0001611984163913834 0 0)
(0.0001000327287714526 0 0)
(6.162407841497149e-05 0 0)
(3.33154906428949e-05 0 0)
(-2.156051450546007e-06 0 0)
(-2.939335999572392e-05 0 0)
(-2.98249989473057e-05 0 0)
(-4.101991694442846e-05 0 0)
(-4.044884775711077e-05 0 0)
(-1.599332177414076e-05 0 0)
(1.32154095265377e-05 0 0)
(3.609367677149114e-05 0 0)
(7.357821451133072e-05 0 0)
(0.0001390803536083282 0 0)
(0.0001869569153673191 0 0)
(0.0002519881770731639 0 0)
(0.0003281345847778726 0 0)
(0.0003946721092501742 0 0)
(0.0004691283645216905 0 0)
(0.0005544643651818279 0 0)
(0.0006134596403759216 0 0)
(0.0006845965197805702 0 0)
(0.0007660324025879864 0 0)
(0.0008312356904623103 0 0)
(0.0008908734141593097 0 0)
(0.0009606749527373224 0 0)
(0.001003236534451296 0 0)
(0.00105678436773238 0 0)
(0.001090137340393671 0 0)
(0.0011223730161599 0 0)
(0.001146741698410243 0 0)
(0.001151194380796401 0 0)
(0.001164325265142077 0 0)
(0.001165710284730601 0 0)
(0.001149513791125101 0 0)
(0.00111316631151358 0 0)
(0.001102404054442975 0 0)
(0.001046548148256234 0 0)
(0.000993038579949261 0 0)
(0.0009641650931140774 0 0)
(0.0008867599827883203 0 0)
(0.0008241907184459277 0 0)
(0.0007663355120933268 0 0)
(0.0007095281012155902 0 0)
(0.0006280082469490714 0 0)
(0.0005912327580189935 0 0)
(0.0005342956765464395 0 0)
(0.0004809768441279821 0 0)
(0.000436404949377334 0 0)
(0.0004228276008526729 0 0)
(0.0003709001111530738 0 0)
(0.0003470223378837084 0 0)
(0.0003553767390900615 0 0)
(0.0003339372306588894 0 0)
(0.000336105014072744 0 0)
(0.0003681613580422094 0 0)
(0.0003765224175644935 0 0)
(0.000416455819945955 0 0)
(0.0004671882742353104 0 0)
(0.0004990484531398934 0 0)
(0.0005540416592697816 0 0)
(0.0006493673582173031 0 0)
(0.0006968825175173386 0 0)
(0.0007740300519398422 0 0)
(0.0008729662456051512 0 0)
(0.0009193780854499952 0 0)
(0.001004637913322029 0 0)
(0.001095644543253383 0 0)
(0.001157526262350436 0 0)
(0.001224708069162731 0 0)
(0.001317233471096413 0 0)
(0.001365722629604095 0 0)
(0.001424956947216316 0 0)
(0.001492187337450701 0 0)
(0.001530159030327376 0 0)
(0.001556159935302147 0 0)
(0.001602854970636233 0 0)
(0.001609785464094168 0 0)
(0.001629490705845487 0 0)
(0.001636123956830791 0 0)
(0.001638469853506094 0 0)
(0.001611743928704207 0 0)
(0.001585332652127333 0 0)
(0.001558140387109039 0 0)
(0.001517171115826885 0 0)
(0.001471059482674952 0 0)
(0.00141859165706746 0 0)
(0.001359169387358008 0 0)
(0.001298848861063139 0 0)
(0.001244813491915038 0 0)
(0.001179295364633831 0 0)
(0.001113874197949044 0 0)
(0.001083114475609286 0 0)
(0.001040027836274007 0 0)
(0.0009726706742541996 0 0)
(0.000953485100434787 0 0)
(0.0009437293671925566 0 0)
(0.000891795572481738 0 0)
(0.0008890404761064557 0 0)
(0.0008969209335449536 0 0)
(0.0008813797943493877 0 0)
(0.0008996029685748335 0 0)
(0.0009379328117527128 0 0)
(0.0009710276683407568 0 0)
(0.000987420927085551 0 0)
(0.001070119490869693 0 0)
(0.001118696168978212 0 0)
(0.0011627390152063 0 0)
(0.001265534290123999 0 0)
(0.001341535648621344 0 0)
(0.001402117973060578 0 0)
(0.001496788251722258 0 0)
(0.001587412787055015 0 0)
(0.001641644472749596 0 0)
(0.001727944252120887 0 0)
(0.00182123168722004 0 0)
(0.0018780769640236 0 0)
(0.001954728915277624 0 0)
(0.002037433651998078 0 0)
(0.002077501329317125 0 0)
(0.002133003683247577 0 0)
(0.002196588749635211 0 0)
(0.00221485736291367 0 0)
(0.002233210403000673 0 0)
(0.002271962183335647 0 0)
(0.002289064409884592 0 0)
(0.002279526257786209 0 0)
(0.002275174869949343 0 0)
(0.002261077529711574 0 0)
(0.002240634930409297 0 0)
(0.002191559922642408 0 0)
(0.002158005889258651 0 0)
(0.002133470850738046 0 0)
(0.002060181551338082 0 0)
(0.002006161261788732 0 0)
(0.001961188238363257 0 0)
(0.001895781931802438 0 0)
(0.001838890044740059 0 0)
(0.001804300635229966 0 0)
(0.001754812315501163 0 0)
(0.001707808048002129 0 0)
(0.001687412312125611 0 0)
(0.00165986729386195 0 0)
(0.001623624006542064 0 0)
(0.001633222478385073 0 0)
(0.001616802668837757 0 0)
(0.001613859490509269 0 0)
(0.001631529578032069 0 0)
(0.001672331754899377 0 0)
(0.001681906777903762 0 0)
(0.001731796811553442 0 0)
(0.001790798565880262 0 0)
(0.001832848710717614 0 0)
(0.001902334663652788 0 0)
(0.001987437894342166 0 0)
(0.002051449447157011 0 0)
(0.002146852272207421 0 0)
(0.002221774842533146 0 0)
(0.002303593090780615 0 0)
(0.002381913994492892 0 0)
(0.002471508167691388 0 0)
(0.002537585033398829 0 0)
(0.002630393668769074 0 0)
(0.002706006799588435 0 0)
(0.002759698755223651 0 0)
(0.002850596133147172 0 0)
(0.002896768437451102 0 0)
(0.002935405049170547 0 0)
(0.002997398269047411 0 0)
(0.003015827497563157 0 0)
(0.003042335834823342 0 0)
(0.003073959265615556 0 0)
(0.003076877047652013 0 0)
(0.003069134851164608 0 0)
(0.003078217727777886 0 0)
(0.003047511943410848 0 0)
(0.003002719454615072 0 0)
(0.00300644187787968 0 0)
(0.002940067195935332 0 0)
(0.002899864165551771 0 0)
(0.002868163469175015 0 0)
(0.002785731652306444 0 0)
(0.002741727121666284 0 0)
(0.00269829756921964 0 0)
(0.002620755052406973 0 0)
(0.002612914967623563 0 0)
(0.002563823075858574 0 0)
(0.002512815402287979 0 0)
(0.002505459060266866 0 0)
(0.002484759830326939 0 0)
(0.002461511122598224 0 0)
(0.002456373179040107 0 0)
(0.002469229776415701 0 0)
(0.002474620480899953 0 0)
(0.002488354950008828 0 0)
(0.002544855168729379 0 0)
(0.002578549651360999 0 0)
(0.002610905691278596 0 0)
(0.002701058386500361 0 0)
(0.002744503243791168 0 0)
(0.002817922752171734 0 0)
(0.002909074455620692 0 0)
(0.003001859348940296 0 0)
(0.003075483857542538 0 0)
(0.003164340747181897 0 0)
(0.003258552242314741 0 0)
(0.003334946153415849 0 0)
(0.003406037514782767 0 0)
(0.003513819460662257 0 0)
(0.00358886159390501 0 0)
(0.003657932303824789 0 0)
(0.003738566130313876 0 0)
(0.003804324069148216 0 0)
(0.003853121812655463 0 0)
(0.003916464913675886 0 0)
(0.003947858974898199 0 0)
(0.003975574759874617 0 0)
(0.004013380920859913 0 0)
(0.004036916412143592 0 0)
(0.004033204526479819 0 0)
(0.004035392298436411 0 0)
(0.004037477331727483 0 0)
(0.00399141923523657 0 0)
(0.003986334869522233 0 0)
(0.003953754469616014 0 0)
(0.003909459598778119 0 0)
(0.003873618232407822 0 0)
(0.003824486054093837 0 0)
(0.003766503121122511 0 0)
(0.003728021115136641 0 0)
(0.003660789855132271 0 0)
(0.003630075848456179 0 0)
(0.003606896076718221 0 0)
(0.003563540116568481 0 0)
(0.003537154064524972 0 0)
(0.003527012428882956 0 0)
(0.003509413242716232 0 0)
(0.003507010338065842 0 0)
(0.003509209500228904 0 0)
(0.00351826466615032 0 0)
(0.003544023549946027 0 0)
(0.00357828181781754 0 0)
(0.003621981730511185 0 0)
(0.003666094349995359 0 0)
(0.003729946609687166 0 0)
(0.003788670519329223 0 0)
(0.003864550845799941 0 0)
(0.003952311767406478 0 0)
(0.004028197289690835 0 0)
(0.004131748187982626 0 0)
(0.004216988522851632 0 0)
(0.004306244728743252 0 0)
(0.004384529679186247 0 0)
(0.004471891955321348 0 0)
(0.004564047890087904 0 0)
(0.004658708836430766 0 0)
(0.004713980861559758 0 0)
(0.00483130749501008 0 0)
(0.004877712292452324 0 0)
(0.004930852701792656 0 0)
(0.005005127277088997 0 0)
(0.005060483960376469 0 0)
(0.005060304785507145 0 0)
(0.005124988666124892 0 0)
(0.005164394235368419 0 0)
(0.005138368946948069 0 0)
(0.005168313836845743 0 0)
(0.005182009235584351 0 0)
(0.005138441454339148 0 0)
(0.005120323313137181 0 0)
(0.005139371437615215 0 0)
(0.005054693446337815 0 0)
(0.005032920703016716 0 0)
(0.005025350589418678 0 0)
(0.004939396811157587 0 0)
(0.004898912805631181 0 0)
(0.004855438830485916 0 0)
(0.004822385250256256 0 0)
(0.004762344200493268 0 0)
(0.004764137124276134 0 0)
(0.00472792048887939 0 0)
(0.004710612186959614 0 0)
(0.004701049739042472 0 0)
(0.004689728880270553 0 0)
(0.004711745811517653 0 0)
(0.004716528320505975 0 0)
(0.004729424103728442 0 0)
(0.004770666193765896 0 0)
(0.004833963507529231 0 0)
(0.004873676536542982 0 0)
(0.004905120628329858 0 0)
(0.005021566579309486 0 0)
(0.00507568204948188 0 0)
(0.005144795523824505 0 0)
(0.00525741245304677 0 0)
(0.005360991980015776 0 0)
(0.005418139513984384 0 0)
(0.005555273078618208 0 0)
(0.005644353078258079 0 0)
(0.005702270956968544 0 0)
(0.00581215300103251 0 0)
(0.005932613243953009 0 0)
(0.005984959865013754 0 0)
(0.006078745447811158 0 0)
(0.006191460892069684 0 0)
(0.006232096675940287 0 0)
(0.006277495922067677 0 0)
(0.006391327771039259 0 0)
(0.006401551244767101 0 0)
(0.006425957183564507 0 0)
(0.00649866383519938 0 0)
(0.006525449687044512 0 0)
(0.006503383321169411 0 0)
(0.006546553834166101 0 0)
(0.006545854174015507 0 0)
(0.006510787659424199 0 0)
(0.006511620126097098 0 0)
(0.006501829732700098 0 0)
(0.006451383138169455 0 0)
(0.006431902669420064 0 0)
(0.00640701890083769 0 0)
(0.006346813779253472 0 0)
(0.00631886419047467 0 0)
(0.006265421549136979 0 0)
(0.006249803542504958 0 0)
(0.00621039506099015 0 0)
(0.006206716318265364 0 0)
(0.006188883688433549 0 0)
(0.006179223516198284 0 0)
(0.006186911555719018 0 0)
(0.006191283855214814 0 0)
(0.006192489955343371 0 0)
(0.00623333825434037 0 0)
(0.006265602945789426 0 0)
(0.006310933010920104 0 0)
(0.00636131373166603 0 0)
(0.00644079977157466 0 0)
(0.006493338440025889 0 0)
(0.006577391056949248 0 0)
(0.006661829721280846 0 0)
(0.006761168741121327 0 0)
(0.006844501810042347 0 0)
(0.006969539926381696 0 0)
(0.007053885030450766 0 0)
(0.007154183555173475 0 0)
(0.007265628256392344 0 0)
(0.007342219073161716 0 0)
(0.00744771869636308 0 0)
(0.007552891115884648 0 0)
(0.007635503300276582 0 0)
(0.007722327902623372 0 0)
(0.007826784743727838 0 0)
(0.007874382444726167 0 0)
(0.007945112363920584 0 0)
(0.008014299894954167 0 0)
(0.008029480021324784 0 0)
(0.008098561329673671 0 0)
(0.008129673607205071 0 0)
(0.008155103053889544 0 0)
(0.008164825872258415 0 0)
(0.008187204224542504 0 0)
(0.008176782933238751 0 0)
(0.008168397530783607 0 0)
(0.008160140894634293 0 0)
(0.008145976077584677 0 0)
(0.008115116546108506 0 0)
(0.008097866632221453 0 0)
(0.008065001426864929 0 0)
(0.008022998464791303 0 0)
(0.007992764422387281 0 0)
(0.007970800699602845 0 0)
(0.007932286469497105 0 0)
(0.007926699818688704 0 0)
(0.007929134919808298 0 0)
(0.007921950768960613 0 0)
(0.007912362748188951 0 0)
(0.007940881465263777 0 0)
(0.00795441718396294 0 0)
(0.007959837792899311 0 0)
(0.008009708196001473 0 0)
(0.008072105325198116 0 0)
(0.008104125111303337 0 0)
(0.00816540212165023 0 0)
(0.008268151347586601 0 0)
(0.008316920097531556 0 0)
(0.008400122755916367 0 0)
(0.00852175611006812 0 0)
(0.008595835476781718 0 0)
(0.008701109655149449 0 0)
(0.008823474624289531 0 0)
(0.008923289867669064 0 0)
(0.008995816211855166 0 0)
(0.009124256754136778 0 0)
(0.009225943544843847 0 0)
(0.009297891337353608 0 0)
(0.009408484537646056 0 0)
(0.009516992564262047 0 0)
(0.009595118079563821 0 0)
(0.009656748646710428 0 0)
(0.009769977595410722 0 0)
(0.009804506398916843 0 0)
(0.009838003666993101 0 0)
(0.00990750711561845 0 0)
(0.009948649524429212 0 0)
(0.009958412828513398 0 0)
(0.01000470827387392 0 0)
(0.01001791516852605 0 0)
(0.01001012826655403 0 0)
(0.01002346296507862 0 0)
(0.01001069955206301 0 0)
(0.009992059385708314 0 0)
(0.009988132921780685 0 0)
(0.00996283873288184 0 0)
(0.009941987675255771 0 0)
(0.009897244916982456 0 0)
(0.009868628904778328 0 0)
(0.009840124222595208 0 0)
(0.009817447640574906 0 0)
(0.009800418793446885 0 0)
(0.009782972923401037 0 0)
(0.009797435708426823 0 0)
(0.009792148600235076 0 0)
(0.00980354733512092 0 0)
(0.009833811852625361 0 0)
(0.009848319154364682 0 0)
(0.009863917599191481 0 0)
(0.009942066307628974 0 0)
(0.009986450731767637 0 0)
(0.01005287290182008 0 0)
(0.01012202244635551 0 0)
(0.01021303304971464 0 0)
(0.01029808479405933 0 0)
(0.01038152145106196 0 0)
(0.01049525115567251 0 0)
(0.01059362269982317 0 0)
(0.01070737123231458 0 0)
(0.01081973262359788 0 0)
(0.01092983923835008 0 0)
(0.0110121598892897 0 0)
(0.01112856685820279 0 0)
(0.01122682618253486 0 0)
(0.0113354073038822 0 0)
(0.01142476386438306 0 0)
(0.01153765955010328 0 0)
(0.01161125708330056 0 0)
(0.01169771763544383 0 0)
(0.01177521855854028 0 0)
(0.01184154325562448 0 0)
(0.0118595226151173 0 0)
(0.0119284083801025 0 0)
(0.01197463000330268 0 0)
(0.01199586324276964 0 0)
(0.01201803802089402 0 0)
(0.01203772280721559 0 0)
(0.01204155970382527 0 0)
(0.01205013651806846 0 0)
(0.01203470280306679 0 0)
(0.01203673047610361 0 0)
(0.0120187157005571 0 0)
(0.01200841136941088 0 0)
(0.01199069063226733 0 0)
(0.01194143823906776 0 0)
(0.01192938603520925 0 0)
(0.01190286998150424 0 0)
(0.01188956470118007 0 0)
(0.01189890925978944 0 0)
(0.01188515685034434 0 0)
(0.01187760369391668 0 0)
(0.01191726540150217 0 0)
(0.01194649175954753 0 0)
(0.01193935178889534 0 0)
(0.01199892919284727 0 0)
(0.01203313244315242 0 0)
(0.0120863790967495 0 0)
(0.01216228633900003 0 0)
(0.0122475265400423 0 0)
(0.01227645193205388 0 0)
(0.01240727445983017 0 0)
(0.0125027216134103 0 0)
(0.01257449474052081 0 0)
(0.01269099835523572 0 0)
(0.0128223320835845 0 0)
(0.01289631191419867 0 0)
(0.01303990417877294 0 0)
(0.01314059806917578 0 0)
(0.01321107929076207 0 0)
(0.01333254158288616 0 0)
(0.01346462577343842 0 0)
(0.01352190212625807 0 0)
(0.01365741816423212 0 0)
(0.01373932703065976 0 0)
(0.01380382383286578 0 0)
(0.01391241992126962 0 0)
(0.01397378567044945 0 0)
(0.01403608438281571 0 0)
(0.01405912345493683 0 0)
(0.0141214122646551 0 0)
(0.01416118169788982 0 0)
(0.01417622879394783 0 0)
(0.01420098343976699 0 0)
(0.01421931893695305 0 0)
(0.01419766910340469 0 0)
(0.01422491024158345 0 0)
(0.01422637546518007 0 0)
(0.01419109117085739 0 0)
(0.01419412046961422 0 0)
(0.01419470740281919 0 0)
(0.01417138249218124 0 0)
(0.01410379409520713 0 0)
(0.01412861058408254 0 0)
(0.01406958885358414 0 0)
(0.01410278829212206 0 0)
(0.01411267761891252 0 0)
(0.01406747905560141 0 0)
(0.01410992434548899 0 0)
(0.01415448751211871 0 0)
(0.0141239385420458 0 0)
(0.01419385736653647 0 0)
(0.0142503741485 0 0)
(0.01423523344365104 0 0)
(0.01435196138093014 0 0)
(0.01440804833253891 0 0)
(0.0144700063136917 0 0)
(0.01454540121118249 0 0)
(0.01466064809760928 0 0)
(0.01473818589028738 0 0)
(0.01484589946412229 0 0)
(0.01497276657020632 0 0)
(0.01503208336872838 0 0)
(0.01517001163749852 0 0)
(0.01533032533980022 0 0)
(0.01531658377444056 0 0)
(0.01544028658112482 0 0)
(0.01565625623917923 0 0)
(0.01559778694273465 0 0)
(0.01580139637673015 0 0)
(0.01591438699273463 0 0)
(0.01588079209641447 0 0)
(0.01605934879139636 0 0)
(0.01619661558316766 0 0)
(0.01600156774601283 0 0)
(0.01623312463731079 0 0)
(0.01639905300686939 0 0)
)
;

boundaryField
{
    inlet
    {
        type            calculated;
        value           uniform (-9.888481132268377e-05 0 0);
    }
    outlet
    {
        type            calculated;
        value           uniform (0.01639905300686939 0 0);
    }
    frontAndBack
    {
        type            empty;
    }
}


// ************************************************************************* //
