/*--------------------------------*- C++ -*----------------------------------*\
| =========                 |                                                 |
| \\      /  F ield         | OpenFOAM: The Open Source CFD Toolbox           |
|  \\    /   O peration     | Version:  v2012                                 |
|   \\  /    A nd           | Website:  www.openfoam.com                      |
|    \\/     M anipulation  |                                                 |
\*---------------------------------------------------------------------------*/
FoamFile
{
    version     2.0;
    format      ascii;
    class       volScalarField;
    location    "0.013";
    object      p;
}
// * * * * * * * * * * * * * * * * * * * * * * * * * * * * * * * * * * * * * //

dimensions      [1 -1 -2 0 0 0 0];


internalField   nonuniform List<scalar> 
1000
(
101303.7077691869
101309.4818357374
101304.6428323832
101294.4977362631
101292.031741097
101286.6057255332
101281.9317139363
101281.6754991011
101276.517301352
101276.2011684689
101276.4449699723
101276.4736899688
101277.7120183801
101279.3205839399
101281.1709209908
101286.0983198751
101289.4326118136
101294.9053726661
101301.2782709399
101306.3457610434
101313.1169092467
101319.5651174476
101326.1989531109
101332.9936674107
101339.3291950591
101345.8965898463
101351.6963534686
101357.1333899072
101362.2238142828
101366.2710077358
101371.7570211349
101372.7928822168
101372.9866570724
101372.9919988889
101372.0591107603
101371.7739245724
101370.544760496
101367.4175599114
101366.1886959682
101361.2695296546
101356.326006608
101352.5564807526
101344.392931486
101338.75662968
101332.3994675809
101324.5032600913
101318.738903655
101311.9510185056
101305.3310381254
101299.5578406537
101293.6300693743
101288.4969950397
101282.9810527048
101278.009209888
101277.6762554424
101277.7546117219
101277.9218024708
101277.9315068774
101279.463587395
101279.9349580948
101281.8171158933
101285.3991150361
101287.0504524198
101292.4198184975
101297.4332797203
101302.2182845163
101309.9136146546
101315.92413862
101323.0773764235
101330.3105381571
101336.6457046302
101343.3975272962
101349.3953489382
101355.2442261434
101360.3863458056
101366.6788638578
101371.6613348005
101371.835230552
101371.8982686963
101371.8728170408
101370.9681652745
101370.8519379899
101369.6105868595
101367.3224062563
101366.1655535413
101362.2674981474
101358.565707705
101354.7562577935
101348.2427757364
101343.021865898
101336.1677391175
101328.8840245132
101322.1397012516
101314.6149725717
101307.8984889339
101301.3669785406
101294.87818579
101289.5710768114
101282.6230308362
101278.678287583
101278.6172490688
101278.7145522558
101278.7313823263
101279.4761871004
101279.9528084747
101280.6845433259
101282.8804192971
101284.2811580447
101287.4216714295
101290.9148443345
101294.6511468569
101300.4780610768
101305.4623193259
101312.0954543924
101319.3137203126
101325.8798735944
101333.5925439056
101340.5136066715
101347.3226580876
101354.0337214697
101359.497037301
101366.4198748381
101370.8630394368
101371.1088018648
101370.9713733685
101370.5076768603
101370.545100261
101369.7513133684
101368.363965804
101367.971173533
101365.4790035322
101362.8421049065
101360.9036174748
101355.6133096221
101351.4809704658
101346.6170941848
101339.0692821351
101333.29797092
101325.9415115965
101317.9726522823
101311.0829710886
101303.4977092798
101296.5965496754
101290.4906525848
101282.838070842
101279.1078711376
101279.0025639741
101279.1727912119
101279.7057807267
101280.0126423792
101280.7212766937
101282.0155476522
101283.0380097851
101284.8854592019
101287.7828457794
101289.7864876717
101294.3418653033
101298.5256831493
101302.99704312
101309.6459343662
101315.0568443154
101322.1533871102
101329.2706949264
101335.9958327341
101343.3229874898
101350.0338488805
101356.7351214375
101364.35595686
101369.6003480082
101370.0123065215
101370.1915429827
101370.401491323
101370.5462946003
101370.1701192145
101369.8091902022
101368.9501061131
101367.47275676
101365.8597192159
101362.8150919018
101359.5586180831
101355.3266956635
101349.9639480865
101344.3644735007
101337.2845709459
101330.3001026359
101322.7911155015
101314.3178528515
101306.5710792437
101298.3930834325
101290.2698954042
101281.7111836483
101276.2176843076
101274.2271387572
101272.9932790318
101272.3696099105
101271.9518727667
101271.6198713371
101271.5652708685
101271.9330254177
101272.452452498
101273.7331980066
101276.0582083879
101278.9901678958
101283.3183244565
101287.7238120704
101293.7969284061
101300.9100453034
101307.5688541536
101316.25462299
101324.9348627531
101333.6041426332
101342.7767288723
101352.3706721218
101360.3404405039
101368.7768762518
101372.2547986355
101375.8698720383
101377.1095312769
101378.0428846819
101378.4927216562
101378.6624439896
101378.5384834278
101377.6906633415
101376.4315635088
101374.5019651226
101371.6176377284
101367.8712717774
101363.4101757137
101357.0075838145
101350.4660143441
101343.6089266057
101335.0048619943
101326.6207315824
101318.0255749804
101308.9845406345
101300.4622000841
101292.5294503615
101283.8862452615
101280.1951409272
101277.9196004119
101275.9836477291
101275.2728331623
101275.3556281498
101275.2149270449
101275.5578654495
101276.3731786276
101276.8631580799
101278.42315304
101281.1543622258
101283.5247609766
101287.2156952388
101292.9598543364
101298.7646410381
101305.8464766658
101313.7128870017
101321.4591699191
101330.3997043332
101339.5974708984
101347.6052587601
101356.916230898
101365.6610580715
101371.1521751362
101374.9574342337
101377.4055454094
101378.7520111207
101379.2076203351
101379.2106526001
101378.6453853344
101377.4864930166
101376.538256378
101374.4896556147
101371.5743238451
101369.0624656194
101364.6121005759
101359.1756434811
101354.033263385
101346.6851925693
101338.782697239
101330.7148862347
101322.2203291721
101313.3675406485
101304.5468354657
101296.4747740145
101288.1522843937
101281.6745808807
101278.8266812455
101276.646990752
101275.5026503254
101275.0012320569
101275.4811941828
101275.5893321696
101276.7225010836
101278.041080856
101279.1907513072
101281.406932932
101284.4301010287
101287.2447166803
101291.4668729396
101297.1154782272
101303.1629799091
101310.1072737936
101318.5032059805
101327.0471607178
101335.5110423505
101344.4756299084
101353.9195605542
101360.8854306957
101369.7759282864
101373.3591211407
101377.317005843
101378.6931236258
101379.4309016761
101379.4846177844
101379.2572732336
101378.3657607024
101376.2823185952
101374.5812836614
101372.4486572981
101368.7027919554
101365.3507270237
101361.3428133969
101355.3355481266
101349.216087126
101342.6380099405
101334.3558973743
101326.1729787052
101317.2411278329
101308.6507070032
101300.2024620162
101292.245601235
101283.9807549125
101280.2175706544
101277.1920586753
101275.6113777903
101275.24605888
101275.2103961405
101275.7486689723
101276.8052987291
101277.9718073386
101279.5742554503
101282.0213649518
101284.4978420757
101287.4528427453
101291.2106139959
101295.925712297
101301.6894695319
101308.1631673899
101315.7007478002
101323.204554293
101332.380142999
101341.1561362652
101349.5923699082
101358.3122731231
101366.2593781888
101372.5683729446
101376.1412052251
101378.7387731991
101380.0096780708
101380.2732511651
101380.1386985678
101379.194256241
101377.6959514047
101376.0662155877
101373.2485379332
101369.9997488291
101366.8756555479
101362.2883985351
101357.4338122102
101352.0642134258
101345.0659584305
101338.2300239377
101330.3893581676
101321.7207817651
101313.2639264139
101304.38925249
101295.6970855433
101288.6328749729
101281.2960904106
101278.6700501343
101276.3576960634
101274.8707890486
101274.815632057
101275.6817223003
101276.5087151045
101277.3225454771
101279.4587949685
101281.4507987417
101283.8959802429
101287.3751323599
101290.6442503042
101294.4551616705
101300.0199633702
101305.9645164177
101312.2000282748
101319.9163998004
101328.1722600659
101336.6066941592
101345.2238882099
101354.1599817798
101361.921886656
101369.8910843442
101374.3591919289
101377.5325456448
101379.8445229535
101380.2916900635
101379.9088686441
101379.6580634789
101378.3596488297
101376.0329656975
101374.3387990335
101371.1770078167
101367.1050388536
101363.9879953979
101359.3286422496
101353.5692444113
101347.98127487
101341.4502499712
101333.6872026975
101326.331617
101317.6574728841
101309.2765092361
101300.950330245
101292.9627631395
101284.3657468049
101280.6938020294
101277.5734228536
101275.9240492815
101275.6256458774
101275.7561047513
101276.293858563
101277.7846085268
101279.3537056576
101281.1858060114
101284.2041969386
101287.0211767245
101290.3472144751
101294.2412313539
101298.6966739931
101304.4926684704
101310.3811175728
101317.139305994
101324.4887960841
101333.0102841304
101341.3814946189
101349.7541848718
101358.4219077138
101366.6219207972
101372.6887039965
101376.735464793
101379.2314191321
101380.3079124841
101380.6826765009
101380.2335308079
101378.8549235492
101377.2667966481
101375.2065309489
101371.7167821453
101368.5496511696
101364.9780165246
101359.6590873054
101354.9367574205
101349.6314354534
101342.5780069974
101336.0736087558
101328.7957145462
101320.5960988011
101312.6192211284
101303.9101775819
101295.738561669
101288.5409747681
101280.9269145102
101278.2629208102
101275.8869879982
101274.352809118
101274.545013269
101275.3838699233
101276.5412759794
101277.8485628747
101280.2700005313
101282.6995633503
101285.6025072734
101289.5831929986
101292.9579913093
101297.1953808527
101302.6641643863
101307.9427878517
101314.046949481
101321.4381718981
101328.5673714523
101337.1252657897
101345.058938301
101353.216666092
101361.5035857755
101369.5801160768
101373.8028834378
101378.0934546178
101379.9464820102
101380.5291221417
101380.27257384
101379.6557699359
101378.1995313195
101375.9039320813
101372.8951850643
101369.9667058812
101365.695137795
101361.1204093781
101356.5877416003
101350.7031582649
101344.6840688674
101338.4834171673
101330.9068404307
101323.6617984736
101315.7134407702
101307.0817243894
101299.7351841382
101291.4481935983
101283.5674346407
101278.8230148815
101275.998955523
101273.7904893877
101273.6989737347
101273.8882009978
101274.7994767761
101276.7386501783
101278.3567537051
101280.9525752367
101284.2232121008
101287.102112003
101291.2108622238
101295.1498109366
101299.5567565285
101305.4131956176
101310.9703608704
101317.2126264395
101324.2470691145
101332.081223091
101340.008600872
101348.0228863813
101356.5106029934
101363.78705084
101371.0178829387
101374.7252383708
101378.0438976147
101379.399066594
101379.7177478164
101379.2277049393
101377.700078111
101375.8331170819
101373.2969979338
101369.5122504887
101366.112197275
101361.8144492264
101356.2501144486
101351.6184089939
101345.5384648111
101338.6838878887
101332.681743785
101325.1982725627
101317.1991739763
101309.7920995787
101301.7207512323
101292.9422556183
101287.0005259915
101278.895694305
101276.3281173947
101272.9681005808
101271.8747364247
101271.5722481558
101272.6338271394
101274.4119009716
101275.5477363773
101277.8422064833
101281.3608963297
101284.0203279065
101288.0565679206
101292.4396534649
101296.2280627722
101301.8250362256
101307.3599805768
101313.032841231
101320.4093840551
101327.1517982941
101335.0463475556
101343.0034531999
101350.4410122957
101358.859540845
101366.3661628464
101371.2823095054
101375.7280633803
101378.1330767971
101379.0102279261
101378.8344176964
101378.1236552406
101376.6216035377
101374.1057374036
101370.9430259621
101367.4049631579
101362.5759080288
101357.959361759
101353.0635159438
101346.6322666786
101341.14419675
101334.6219558286
101327.1582625642
101320.4708741965
101312.5961747943
101304.878178236
101297.4771218337
101289.7587659732
101282.6993705584
101277.5227574972
101274.5767632623
101272.1422394388
101271.7349539068
101272.0065738299
101273.0494243503
101275.1660459722
101277.0903288099
101280.1535870747
101283.752951077
101286.8474999805
101291.4073008565
101296.0947945985
101300.2343590528
101305.7016090207
101311.8326799542
101317.5098026159
101324.0192736399
101331.7640607337
101338.7536131139
101346.0090671684
101354.2273926277
101361.4581851715
101368.2786816595
101372.4428275155
101375.6326433696
101377.9923144762
101378.3292387708
101378.0744399535
101376.7213764378
101375.1066761137
101371.5359798056
101368.4506066114
101363.7401008066
101358.7419356449
101353.7639059498
101347.6313956562
101341.8331658514
101335.3039282222
101328.7323392988
101321.8880375049
101314.0477418455
101306.9086430399
101299.3391340238
101291.6365505867
101284.9159780145
101278.0283736982
101274.2307356213
101271.4307811285
101269.4763449333
101269.3046793712
101269.7749355941
101271.7892745841
101273.2262738994
101275.8259637405
101279.9072908619
101283.1225429542
101287.5562093146
101292.2293447597
101296.8066309896
101301.9790861175
101307.4000697487
101313.5446327915
101319.6750143745
101326.2781658775
101333.8192774992
101340.5908656116
101348.1722150772
101355.4267472101
101362.9479892139
101368.2075526027
101372.492187631
101375.0457032983
101376.7759288589
101376.9871772524
101376.2833089166
101374.9104926827
101372.4710230707
101368.8369064357
101364.7036530367
101360.1213745511
101354.5123407056
101348.9240382185
101342.8700508897
101336.3200492105
101329.8899432009
101322.464361052
101315.6135705687
101308.3667426809
101300.6102057015
101293.5804433086
101286.5815707519
101279.6893712761
101274.2488246569
101271.7153469352
101268.444385559
101267.3352378854
101267.9097627362
101268.6981130527
101270.7645613704
101272.7447787658
101276.7468576195
101280.2572912552
101283.6286844261
101289.2056898653
101293.8370822447
101297.916327787
101304.091189364
101309.6649170087
101314.8832746026
101321.5401183544
101328.2224542674
101334.9039372973
101342.2232381172
101349.7674977866
101356.9869192253
101362.7144411476
101367.9958076605
101371.9789649146
101373.7888832432
101375.0957261191
101375.1743174843
101374.4626566297
101372.3589369746
101369.2915093006
101366.2819868045
101360.8342280718
101355.4507849158
101350.0105633268
101343.1732071418
101336.934883575
101330.0806047157
101322.9222219352
101315.9561307708
101308.4010070644
101301.2732245407
101294.5062894935
101287.261588857
101280.7379096082
101274.8232152423
101270.9187978795
101267.5873904547
101266.1143623984
101264.8093120086
101265.8620958265
101267.2894965063
101269.2101215017
101271.819282727
101276.1457238795
101279.4853768064
101284.2674638563
101289.7823505367
101294.3911041068
101299.7435354843
101305.542028568
101311.279116092
101317.0144391423
101323.0396526268
101329.9708505145
101336.6679491849
101343.0086521285
101350.263043176
101357.1571287938
101362.6061111485
101366.9604067404
101370.2674140655
101372.2589186759
101372.8640091147
101372.860436355
101371.7352897424
101368.8664951829
101365.9601174728
101361.9260064243
101355.7444208544
101350.4708914835
101344.2008296037
101337.2204113191
101330.7403063817
101323.1577023431
101315.8727850839
101308.9846662375
101301.2664712444
101294.0599390273
101287.8301874312
101280.6175654363
101274.2242267474
101269.8673898586
101266.6618281418
101263.8208435975
101262.2792518346
101262.3401430647
101262.9918199825
101265.1603142129
101267.0297318266
101270.2523534557
101274.728050283
101278.6532677742
101283.710295439
101289.9868928336
101294.5729962012
101300.1580460098
101306.5912881805
101311.4564153213
101317.7128890895
101323.9759482228
101330.0155397941
101336.5902126944
101343.0655045724
101350.1860294549
101355.3668972369
101360.8458145478
101364.7299035336
101367.5843788146
101369.4809702228
101370.0866721261
101369.5726543403
101367.7718938072
101365.4552926169
101360.7749871882
101356.3305452081
101350.6630636314
101343.4542915229
101337.3719223995
101330.6477760144
101322.7380455122
101315.435645379
101308.2457401164
101300.7210695858
101293.8647713021
101287.0915657497
101279.8653674143
101274.4243691853
101268.6322879126
101265.1622819904
101261.9296639373
101260.3577313865
101259.2551073014
101259.3290347014
101260.856937605
101262.9487721168
101265.2594229825
101268.9907038633
101273.1527514817
101277.7486846664
101283.1939980942
101289.1502469423
101294.8543234067
101300.6768682906
101307.0380704843
101312.7064191665
101318.64996399
101324.7448918677
101330.4264521876
101336.5159971583
101342.4289076498
101348.7282736856
101353.8100423818
101358.4515232506
101362.2977267881
101364.7419413233
101366.4507015159
101367.0020664664
101365.8801434708
101363.666559858
101360.4568293317
101355.607523525
101350.2552308607
101343.823417786
101336.8206254814
101329.9560390711
101322.639108935
101315.2076219191
101307.6780924166
101300.8399592794
101293.850217981
101286.6471636957
101280.9417753992
101274.4472992887
101268.6998816685
101264.5998934355
101262.0459974014
101259.1406658878
101257.695780668
101257.8075010054
101258.453869943
101260.4250054105
101262.5518541419
101265.4098556696
101269.2706864842
101273.8137293567
101278.8300761194
101284.6807261744
101290.3272451775
101296.4308324741
101302.7054106531
101308.3866442118
101314.98516252
101320.9838800712
101326.5334759753
101332.585584944
101338.6485448732
101343.3403354546
101348.9698121122
101352.7332016006
101356.8031234719
101359.919514526
101362.137218041
101363.4480988125
101363.6841916001
101362.6621890919
101360.8226520522
101356.7579745633
101352.381444364
101346.0800822272
101338.5492817305
101331.9423051488
101323.9594838535
101315.8427236368
101308.132673031
101300.0173834057
101293.2504954688
101285.6490814291
101278.9612892027
101273.4173712045
101267.1000271619
101262.7139427748
101259.3202773868
101257.1394985747
101254.2611346768
101253.9995079354
101254.4975974667
101255.3431757842
101257.5092370762
101260.1669148572
101263.399987206
101267.8053025874
101272.5360696185
101278.0811374951
101283.887814949
101289.968828311
101296.5155160851
101302.4601269583
101308.7701601206
101314.9407727909
101321.2002002053
101326.9102733672
101332.4959450928
101337.9637327616
101343.2667723078
101346.838695019
101350.9204213692
101353.6337930507
101356.005075278
101357.6397510069
101358.5260535226
101358.3340533077
101357.1902014676
101355.8192931893
101351.3518913686
101346.1148903494
101339.9181180655
101331.9532467088
101323.8102050582
101315.9162440579
101307.6287515811
101299.6284926215
101292.7275863603
101285.5923092408
101278.6860905516
101273.1195737876
101267.5048106776
101261.9403473725
101258.93789259
101255.8782457076
101253.4454870145
101251.8169366272
101252.0476893275
101253.1840439494
101253.9714939324
101256.5550053409
101260.0940446065
101263.2114544603
101267.9009355852
101273.4434631472
101278.5213591836
101284.1874561777
101292.0059549183
101296.5426355066
101303.1521667332
101312.584676409
)
;

boundaryField
{
    inlet
    {
        type            uniformFixedValue;
        uniformValue    sine;
        uniformValueCoeffs
        {
            frequency       constant 3000;
            scale           constant 50;
            level           constant 101325;
        }
        value           uniform 101312.8819131453;
    }
    outlet
    {
        type            waveTransmissive;
        gamma           1.4;
        fieldInf        101325;
        lInf            2.25;
        value           uniform 101314.1396677979;
    }
    frontAndBack
    {
        type            empty;
    }
}


// ************************************************************************* //
