/*--------------------------------*- C++ -*----------------------------------*\
| =========                 |                                                 |
| \\      /  F ield         | OpenFOAM: The Open Source CFD Toolbox           |
|  \\    /   O peration     | Version:  v2012                                 |
|   \\  /    A nd           | Website:  www.openfoam.com                      |
|    \\/     M anipulation  |                                                 |
\*---------------------------------------------------------------------------*/
FoamFile
{
    version     2.0;
    format      ascii;
    class       volScalarField;
    location    "0.013";
    object      pMean;
}
// * * * * * * * * * * * * * * * * * * * * * * * * * * * * * * * * * * * * * //

dimensions      [1 -1 -2 0 0 0 0];


internalField   nonuniform List<scalar> 
1000
(
101325.0334761581
101325.0202300857
101325.0094855179
101325.0272935851
101325.0413178597
101325.0588778398
101325.0725231419
101325.1097013244
101325.1147099441
101325.1534238937
101325.1788400159
101325.2025377449
101325.2254601861
101325.2700008796
101325.2800370957
101325.2968452732
101325.3428113409
101325.3585536976
101325.3563979001
101325.3825048524
101325.4062468049
101325.4065551153
101325.3916299222
101325.4153529937
101325.4168440638
101325.396636773
101325.3734353731
101325.386023386
101325.3703362285
101325.3223942057
101325.3158671786
101325.3080060999
101325.2586310879
101325.2240009018
101325.2299264781
101325.188650356
101325.1433445984
101325.1400960076
101325.1223051844
101325.0772977523
101325.0620009652
101325.0552302999
101325.0322566994
101325.0168209074
101325.0060086493
101325.0095514676
101325.0065451645
101324.9959740352
101325.0138103877
101325.0269259315
101325.0259435483
101325.0500056302
101325.0760632192
101325.0808831704
101325.1165424043
101325.1506873691
101325.1616557854
101325.1913397846
101325.2305034643
101325.2389648003
101325.2685952121
101325.3042459488
101325.312021456
101325.3324214021
101325.3709121749
101325.3734479326
101325.3779144802
101325.4057434681
101325.4125826269
101325.3987459467
101325.4059110209
101325.4088668725
101325.3904206057
101325.3770860511
101325.370685814
101325.346780696
101325.3215468986
101325.3031619217
101325.2764543615
101325.244947572
101325.2206115357
101325.2022939337
101325.1692774855
101325.1439433342
101325.1252051572
101325.100112106
101325.0761018448
101325.0588830217
101325.0400839207
101325.0262503179
101325.0195566516
101325.0018312564
101325.0037303775
101325.0089690518
101325.0059224253
101325.0120123654
101325.0316394402
101325.043244926
101325.0583496651
101325.0861627477
101325.1061747568
101325.1327219014
101325.1645600334
101325.1829748992
101325.2063339716
101325.2430849677
101325.2605828863
101325.2774463326
101325.3140968468
101325.330299327
101325.3416783397
101325.3716669651
101325.3848874608
101325.3816126804
101325.4043094944
101325.4144205316
101325.3959489598
101325.4049250554
101325.4086758809
101325.3766433756
101325.3674677768
101325.3672710394
101325.3262788098
101325.3007816839
101325.2950756166
101325.2533753177
101325.2208331393
101325.2161239235
101325.1817351906
101325.1442805128
101325.139597041
101325.114236763
101325.0768524161
101325.0704817465
101325.059543209
101325.0250931214
101325.0210564797
101325.0251978342
101324.9964453404
101325.0014373194
101325.019308357
101325.0053314286
101325.0135328108
101325.0489280405
101325.0503561857
101325.064842433
101325.1107805385
101325.120526556
101325.1458933191
101325.1834546038
101325.1999126827
101325.2183039301
101325.2616219323
101325.2740526835
101325.2878614849
101325.3305674503
101325.3404351374
101325.3479785731
101325.3818616595
101325.3912238729
101325.3836555074
101325.4100413113
101325.4142970248
101325.3909058553
101325.4024791794
101325.3989273682
101325.3668542912
101325.3562472576
101325.3506330007
101325.3058939689
101325.2841694557
101325.2724559262
101325.2315550198
101325.2100325804
101325.196353673
101325.1620151372
101325.1362377731
101325.1337246129
101325.0974568382
101325.0748123081
101325.0744857438
101325.0492118526
101325.0296253643
101325.0346568399
101325.0211112149
101325.0065380155
101325.0226342224
101325.0222918677
101325.0166138337
101325.0418927839
101325.056559925
101325.0615085912
101325.0916124106
101325.1183390119
101325.1282282968
101325.1519650095
101325.1801084832
101325.1892392441
101325.2062039478
101325.233009183
101325.2404073114
101325.2527425493
101325.2708700928
101325.2818544219
101325.2864707904
101325.2945647506
101325.3019883473
101325.3040310987
101325.3008820407
101325.2965409828
101325.296031266
101325.2814037186
101325.2679860426
101325.25590525
101325.2395836522
101325.2093096633
101325.1946289135
101325.1759023302
101325.1449087199
101325.1295856568
101325.1192084415
101325.0895799405
101325.0749081935
101325.0696889291
101325.0471970642
101325.0303799936
101325.0297516278
101325.0155066069
101325.0022277362
101325.0037105909
101324.9991253983
101324.9931963069
101325.0020757137
101325.0092015924
101325.0088990757
101325.0292987955
101325.0464498107
101325.0589829891
101325.0849069863
101325.1129286033
101325.1292468516
101325.1570537498
101325.1792527469
101325.2001392442
101325.2185428248
101325.2380571829
101325.2555577279
101325.2674013646
101325.2845486718
101325.2945952299
101325.3045235811
101325.3135995204
101325.3210701557
101325.321927757
101325.3249510538
101325.3228278655
101325.3196717291
101325.3090974706
101325.2988336253
101325.2887715828
101325.2680968534
101325.2490833507
101325.2304824098
101325.2070039287
101325.1829323963
101325.1664738839
101325.1490252538
101325.1240957272
101325.1107264152
101325.0995988133
101325.0817023643
101325.0644928771
101325.061383106
101325.0496451505
101325.0355179209
101325.0349944144
101325.0297126511
101325.028549574
101325.0249858166
101325.0377782867
101325.0407037292
101325.0497556432
101325.0681029172
101325.0852545683
101325.1036086416
101325.1269808975
101325.1560991962
101325.1722705752
101325.2007152602
101325.2238792412
101325.2436092014
101325.258865729
101325.2792278367
101325.2964114967
101325.3082561303
101325.3207368528
101325.3334628364
101325.3418414967
101325.3434963462
101325.3554421032
101325.3559120183
101325.3501459901
101325.3534094924
101325.3481604807
101325.3333893391
101325.3232726642
101325.3129813085
101325.2897080456
101325.2702945561
101325.2504976698
101325.2322393243
101325.2058263385
101325.1886128523
101325.1727212212
101325.1515691893
101325.136304545
101325.1230636379
101325.110812381
101325.0958527533
101325.0900876611
101325.0805939969
101325.0716295481
101325.0678520826
101325.0674202245
101325.0640359174
101325.0714162805
101325.0751658211
101325.0824979329
101325.0989178666
101325.1121505964
101325.1311740593
101325.1537749429
101325.1793660535
101325.1996286403
101325.2254376289
101325.2489276796
101325.269128124
101325.2929101183
101325.3089914191
101325.3220167226
101325.343656648
101325.356993368
101325.3605619505
101325.372985729
101325.3864448345
101325.3814717176
101325.3904414341
101325.3942145512
101325.3893408795
101325.3832952187
101325.3850642763
101325.3665479516
101325.3514730687
101325.3427738204
101325.3240670084
101325.299442614
101325.278741758
101325.264953762
101325.2391117783
101325.2177716609
101325.2109573417
101325.1855305142
101325.1713908515
101325.1616587343
101325.151950127
101325.1337561861
101325.132157638
101325.1246515358
101325.1185249133
101325.1136459283
101325.1170856404
101325.1184458272
101325.119057749
101325.1318051623
101325.1403420851
101325.1561145647
101325.1702450805
101325.1951560476
101325.2143405269
101325.2384049688
101325.2659266887
101325.2818986187
101325.3131550924
101325.3303485114
101325.3466126657
101325.3652407506
101325.3853921848
101325.3935580205
101325.4049904955
101325.4198767943
101325.4241193807
101325.4282979796
101325.4322001832
101325.4402225451
101325.4304833431
101325.4322546069
101325.4280784088
101325.4148111121
101325.406087894
101325.39394756
101325.3721143882
101325.3530753366
101325.3395137528
101325.3131557218
101325.2895786556
101325.27961942
101325.2574438204
101325.2346873683
101325.2272084615
101325.2134611427
101325.192531043
101325.1904729706
101325.183536751
101325.1700666306
101325.1646083873
101325.1695088562
101325.1651353006
101325.1600611414
101325.1775966137
101325.1736637168
101325.1864493626
101325.2037652027
101325.2153840298
101325.2287206297
101325.2617751092
101325.2813052354
101325.298919204
101325.3315043514
101325.3540029532
101325.3674871991
101325.3965329255
101325.4141332932
101325.4215508129
101325.4473408973
101325.4574949161
101325.462014214
101325.4751563433
101325.4819564407
101325.4821911493
101325.4875709876
101325.4865966667
101325.4856679391
101325.4792682913
101325.4734297308
101325.4640708043
101325.4481657292
101325.4362259811
101325.4170090021
101325.3990788725
101325.3779987479
101325.3567065919
101325.3378344624
101325.3223949454
101325.3034054282
101325.2845536389
101325.2736586486
101325.2622627018
101325.2459257826
101325.2401814227
101325.2360510505
101325.2231631595
101325.220217431
101325.2263594083
101325.2166326347
101325.2256759617
101325.2286892048
101325.2401862713
101325.2475895269
101325.2624159015
101325.2796605858
101325.2961393268
101325.3240547902
101325.3421742465
101325.3680793842
101325.3898729636
101325.4114663802
101325.4366621253
101325.4535487963
101325.4655848249
101325.4855498707
101325.5023012893
101325.5040896272
101325.5200056026
101325.5257739379
101325.5272206469
101325.5298250175
101325.5348020524
101325.5248692954
101325.5256117527
101325.52396765
101325.5059511378
101325.4996913768
101325.4868167409
101325.4674493023
101325.4506309546
101325.4308131768
101325.409585234
101325.3892199821
101325.3755013511
101325.3542728585
101325.3347746972
101325.3240547584
101325.3101633983
101325.2947581385
101325.287991779
101325.2800750323
101325.2720059414
101325.2673079199
101325.2658885858
101325.2669022377
101325.2628579573
101325.2749650336
101325.2818377457
101325.2849773501
101325.3023358964
101325.3159777352
101325.3319631041
101325.3539897136
101325.3725669152
101325.3950174219
101325.425064436
101325.440065601
101325.4611451574
101325.4830682205
101325.5017578442
101325.5121926872
101325.5273607592
101325.5422574486
101325.5467946665
101325.5552895367
101325.5588227342
101325.5616829469
101325.5617070632
101325.5587902215
101325.5562387446
101325.5488214165
101325.5407946385
101325.5333297845
101325.5160102981
101325.4964158165
101325.4886889987
101325.462788213
101325.4400992321
101325.4250307967
101325.4042288434
101325.3836240367
101325.3742117247
101325.348667659
101325.3324333004
101325.3303347881
101325.3113749381
101325.2985435452
101325.3009726452
101325.2894440384
101325.279296942
101325.2887721812
101325.2857729437
101325.2825092162
101325.2933891535
101325.3106738035
101325.3031006731
101325.3218449478
101325.3462871513
101325.3494036007
101325.3739981293
101325.4001042856
101325.4189976362
101325.4340522557
101325.462999802
101325.4822485856
101325.4892525648
101325.5118985426
101325.5296929698
101325.5295753208
101325.5415896828
101325.5597249842
101325.5496896837
101325.5514183604
101325.5632511606
101325.5488983715
101325.5492203911
101325.5423428631
101325.5364963731
101325.5223824691
101325.5064407718
101325.5010516286
101325.4740561204
101325.4577810908
101325.4413568611
101325.4189004286
101325.3937251322
101325.3866699307
101325.3635128014
101325.3410349688
101325.3299604277
101325.3187305942
101325.3006106773
101325.2951406486
101325.287666558
101325.2744171149
101325.2744466052
101325.2712170013
101325.2684097959
101325.2720687774
101325.2826747243
101325.2798741446
101325.2943258782
101325.3070651913
101325.3180195543
101325.3304024082
101325.3536302909
101325.373969293
101325.3914396558
101325.4105243182
101325.4403551275
101325.4537067707
101325.4713706316
101325.485944083
101325.5069463608
101325.5108491411
101325.5240221397
101325.5390822474
101325.5315394559
101325.5391591849
101325.5449505983
101325.5356234453
101325.5276225855
101325.5394049235
101325.5190011044
101325.5048510948
101325.5070935773
101325.4811632827
101325.4621287393
101325.4571490584
101325.4269551071
101325.4040510794
101325.3970998064
101325.3695890515
101325.3466571652
101325.3376063378
101325.3236285671
101325.2975644524
101325.2870309063
101325.2832881048
101325.2709435738
101325.255480583
101325.2567433806
101325.2526168128
101325.2456734128
101325.2464053857
101325.2598160009
101325.2542024772
101325.2663844851
101325.2761935941
101325.2843425171
101325.2973350028
101325.3189317258
101325.3305151106
101325.3525080176
101325.3704681647
101325.3870971225
101325.4138385162
101325.4253141771
101325.438245418
101325.4564885959
101325.4684924162
101325.473528394
101325.4839259234
101325.4904323359
101325.4918720416
101325.4874943797
101325.4884378928
101325.4845924794
101325.4739494835
101325.4717641504
101325.4584647046
101325.4466470431
101325.4272714023
101325.4131280251
101325.3966370129
101325.3715158789
101325.3586110628
101325.332927732
101325.3132026141
101325.2979428727
101325.2782037916
101325.2554282004
101325.2477869263
101325.2309910283
101325.2107250135
101325.2137591755
101325.1973012908
101325.1828513512
101325.1902529345
101325.1832283936
101325.1723061009
101325.184462324
101325.1889505688
101325.1878917886
101325.2011622564
101325.213405221
101325.2147203739
101325.2325093381
101325.2531266562
101325.2645246461
101325.2791626432
101325.3058344922
101325.3192495197
101325.331432111
101325.3512698751
101325.3651036981
101325.3770837633
101325.3772655825
101325.3958318979
101325.4025476368
101325.3931442958
101325.3963094358
101325.4037225723
101325.3856836652
101325.3784656183
101325.380264682
101325.3663255596
101325.3446071345
101325.3384942296
101325.3267014311
101325.2890658896
101325.277485029
101325.2694728449
101325.231243545
101325.2115798385
101325.2098692783
101325.1714458711
101325.1550078892
101325.1514088503
101325.1257484204
101325.1032910762
101325.1114836915
101325.0920589358
101325.0714195133
101325.0790607389
101325.0742436697
101325.0528225071
101325.069642088
101325.0703775485
101325.0647855971
101325.078140064
101325.0877727285
101325.0910825035
101325.1040749777
101325.1188632009
101325.1269313264
101325.1498396424
101325.1660253908
101325.1773499077
101325.1942401319
101325.2124492087
101325.2199051172
101325.2309845742
101325.2416254703
101325.2475782755
101325.2512837055
101325.2595098928
101325.2474145911
101325.2521503735
101325.2471847855
101325.2362587896
101325.2227061746
101325.2240980649
101325.201533913
101325.1867660656
101325.1694702059
101325.151825804
101325.1250047387
101325.1086041054
101325.084312623
101325.060160202
101325.0454584237
101325.0241531519
101324.9937000315
101324.9907987959
101324.9688902232
101324.9477137768
101324.9371633356
101324.9320171883
101324.9123867
101324.9059831133
101324.9005636963
101324.8914407754
101324.8899751726
101324.8911341101
101324.8904182827
101324.8970527314
101324.8994834989
101324.9131711102
101324.9129250706
101324.9269483656
101324.937231102
101324.9512733528
101324.9618222803
101324.9833664548
101324.9903649773
101325.0041820069
101325.0129402663
101325.0325669954
101325.0240751159
101325.0407324012
101325.0453180233
101325.0383118439
101325.0447610706
101325.0386976832
101325.0276288012
101325.01879283
101325.018263753
101324.994656428
101324.9795978606
101324.9746169443
101324.94281403
101324.93193876
101324.9044652773
101324.8749832225
101324.86063838
101324.8343751038
101324.8029410581
101324.7939914615
101324.7745260888
101324.7390015211
101324.7305548737
101324.7213669924
101324.6909017664
101324.6783380118
101324.6810315339
101324.6566813036
101324.6415118125
101324.6517019169
101324.633314964
101324.6225201991
101324.6437715562
101324.6302138004
101324.631154772
101324.6440378876
101324.6523069238
101324.6472586762
101324.6617581492
101324.6775981341
101324.6809144483
101324.6909024158
101324.712504669
101324.7214749446
101324.7211696161
101324.7410999215
101324.7420765843
101324.7433505699
101324.7474986182
101324.7538111218
101324.7404307325
101324.7471964197
101324.7324361624
101324.721331059
101324.7071276344
101324.7107890647
101324.6744867153
101324.666954604
101324.6544495446
101324.6193714944
101324.5966187485
101324.5794350449
101324.5499742038
101324.5144561511
101324.5020493565
101324.4746139308
101324.4490238151
101324.4315330325
101324.4120096718
101324.3911317334
101324.3678520977
101324.3610005282
101324.3444037574
101324.323081417
101324.318720393
101324.3129319328
101324.2900485878
101324.2883166622
101324.2966881166
101324.2791135316
101324.2886189974
101324.298329696
101324.2925738825
101324.2914011121
101324.3162672703
101324.3109584324
101324.3215185186
101324.3341781224
101324.3415566511
101324.3538836505
101324.3677357566
101324.367660417
101324.3734498349
101324.3866610058
101324.3785252171
101324.3792915385
101324.3836783891
101324.3731485869
101324.3645710874
101324.3604612743
101324.3414675811
101324.321328138
101324.3266047241
101324.2966835079
101324.2737541066
101324.260780385
101324.2354842776
101324.1975835974
101324.1838834129
101324.1609628591
101324.1107811147
101324.1019849267
101324.0797027339
101324.0481858075
101324.0282239342
101324.0189772859
101323.977651075
101323.9804648945
101323.9653631554
101323.933270319
101323.9328139106
101323.9281931563
101323.8978633448
101323.8996490643
101323.8995007952
101323.8813000191
101323.8873706182
101323.900307767
101323.8823501913
101323.8880929248
101323.9009354402
101323.8975986945
101323.9081503541
101323.9141066899
101323.9179967129
101323.9260949039
101323.9376418276
101323.9430031028
101323.9422325614
101323.9458632554
101323.9511424859
101323.9442262656
101323.9412017008
101323.9375059554
101323.9261499027
101323.912923476
101323.9045981405
101323.8844194288
101323.8592594392
101323.8612440486
101323.8307338392
101323.8098766123
101323.7783798486
101323.7574767887
101323.7249846903
101323.7016662052
101323.6682289728
101323.6354838005
101323.6186576144
101323.582072951
101323.5628020382
101323.5401130277
101323.5205712051
101323.4963610266
101323.481988974
101323.4628169381
101323.4566157959
101323.4319092934
101323.4203291713
101323.4156725354
101323.4022671643
101323.3835576612
101323.4016778371
101323.3939578275
101323.3880642903
101323.3888994708
101323.3957732588
101323.3879944255
101323.4008378018
101323.4031404798
101323.408752463
101323.4208839562
101323.4135296983
101323.4223717414
101323.4385247417
101323.4227914506
101323.4275535466
101323.4238199912
101323.4267994402
101323.4332153431
101323.3727445978
101323.4044646102
101323.4055513214
101323.3151795892
101323.3427123487
101323.3369037447
)
;

boundaryField
{
    inlet
    {
        type            calculated;
        value           uniform 101325.0027175089;
    }
    outlet
    {
        type            calculated;
        value           uniform 101323.3408389499;
    }
    frontAndBack
    {
        type            empty;
    }
}


// ************************************************************************* //
