/*--------------------------------*- C++ -*----------------------------------*\
| =========                 |                                                 |
| \\      /  F ield         | OpenFOAM: The Open Source CFD Toolbox           |
|  \\    /   O peration     | Version:  v2012                                 |
|   \\  /    A nd           | Website:  www.openfoam.com                      |
|    \\/     M anipulation  |                                                 |
\*---------------------------------------------------------------------------*/
FoamFile
{
    version     2.0;
    format      ascii;
    class       volScalarField;
    location    "0.013";
    object      rho;
}
// * * * * * * * * * * * * * * * * * * * * * * * * * * * * * * * * * * * * * //

dimensions      [1 -3 0 0 0 0 0];


internalField   nonuniform List<scalar> 
1000
(
1.176238706310587
1.176291485524248
1.176254372697581
1.176169357052774
1.176146722682716
1.176098911252474
1.176058317804605
1.176054731545456
1.1760118637644
1.176008757249065
1.176009794253724
1.176009102456483
1.176018828099475
1.176031877079759
1.176047071996389
1.176087936838943
1.176115603458344
1.176161091975313
1.176214123662974
1.176256385621706
1.176312801146485
1.176366510897567
1.176421707817769
1.176478186920617
1.176530814573338
1.176585320278251
1.176633416191892
1.176678456986998
1.176720614474432
1.17675416580254
1.17679950886862
1.176808029799432
1.176809607143032
1.17680953164302
1.176801771789657
1.17679939420213
1.176789216217571
1.176763302567415
1.176753135950592
1.176712376775984
1.176671413453003
1.176640181614884
1.17657251163441
1.176525792452565
1.176473090825331
1.176407620056255
1.176359820394971
1.176303526998628
1.176248622386598
1.176200739924131
1.176151577416672
1.17610900415333
1.176063257227926
1.176022025077234
1.176019263694874
1.176019914414168
1.17602130392731
1.176021387245777
1.176034094260098
1.176038005022074
1.176053614507052
1.176083319825017
1.176097014442899
1.17614154053328
1.176183114362633
1.176222793690547
1.176286604810721
1.17633644467957
1.176395759012435
1.17645573476241
1.176508263925281
1.176564246726703
1.176613977091318
1.176662471698371
1.176705105956087
1.176757277343937
1.176798586115508
1.176800028006522
1.176800550616259
1.176800339724889
1.176792839305229
1.176791875581306
1.176781583710962
1.176762612646821
1.176753021396884
1.176720702754724
1.176690010980484
1.176658426674348
1.176604421467658
1.176561133055946
1.176504301920063
1.176443907388196
1.17638798452135
1.176325589075977
1.176269894646305
1.176215732938831
1.176161924431446
1.176117914632095
1.176060295786871
1.176027582208613
1.176027076015302
1.176027882930552
1.176028022485887
1.176034199108342
1.17603815167469
1.17604421993399
1.176062430050446
1.176074046206951
1.176100089855138
1.176129057711923
1.176160041685946
1.176208361334054
1.176249692916901
1.176304696653178
1.176364551092234
1.17641899737243
1.176482948883447
1.176540335533501
1.176596792302164
1.176652435457336
1.176697732622287
1.17675512961545
1.176791966999702
1.176794004501879
1.176792865042739
1.176789020566265
1.176789330739516
1.176782749539837
1.176771247192719
1.17676799057702
1.176747328164682
1.176725465640794
1.176709393791814
1.176665531051445
1.176631268925057
1.176590941336086
1.176528358502464
1.176480505214903
1.176419507213456
1.176353429573672
1.176296299650346
1.176233400192844
1.176176172387894
1.176125538750079
1.176062077232943
1.176031142870007
1.176030269496363
1.176031681078305
1.176036101041943
1.176038645734351
1.176044522307765
1.176055255511583
1.17606373459365
1.176079055163838
1.17610308244653
1.176119698189037
1.17615747423577
1.176192168628735
1.176229247459611
1.176284381836234
1.176329250156218
1.176388095051506
1.176447110523352
1.176502873482621
1.176563626684028
1.176619268833111
1.176674830641184
1.176738015159909
1.176781495606408
1.17678491102772
1.176786397013465
1.176788137592609
1.176789338012566
1.176786219157343
1.176783226675645
1.176776104091749
1.176763855494536
1.176750481928303
1.176725239005169
1.176698239428156
1.176663152066368
1.176618688206695
1.176572261070974
1.176513557899815
1.176455644955462
1.176393381689733
1.176323120986213
1.176258883025641
1.176191067673585
1.176123705425667
1.176052729593745
1.17600717200407
1.175990664269642
1.175980431732628
1.175975259528796
1.175971795139543
1.175969041771622
1.175968588925484
1.175971638695959
1.175975946275645
1.175986567635246
1.176005849039474
1.176030163716409
1.176066056691448
1.176102590612544
1.176152953034767
1.176211938738889
1.176267156191819
1.176339180143284
1.176411156580608
1.176483040333232
1.176559095337212
1.176638642207624
1.176704720601911
1.176774666456945
1.176803501227419
1.176833472755903
1.176843750338812
1.176851488415119
1.176855217836679
1.176856624890168
1.176855597125876
1.176848568135168
1.176838129329175
1.176822131592002
1.17679821832194
1.176767157909936
1.176730171336301
1.176677087075793
1.176622849737819
1.17656599509401
1.176494654125243
1.176425135174818
1.176353864545792
1.176278894882665
1.176208224472402
1.176142441930976
1.176070765733127
1.176040155721156
1.176021284754281
1.176005229876069
1.175999335056098
1.176000021652258
1.175998854816041
1.176001698782899
1.176008460129139
1.176012523547557
1.176025460599619
1.176048110267767
1.176067767710511
1.17609837608334
1.176146010649525
1.176194147278209
1.176252872852332
1.176318103037043
1.176382335680173
1.176456469321011
1.176532733928368
1.176599129938921
1.176676329565125
1.176748832988288
1.176794358998584
1.176825907405472
1.176846203887113
1.176857366944567
1.176861144234659
1.176861169383979
1.176856482934512
1.176846874943522
1.176839013474129
1.176822029120433
1.176797858755699
1.176777033513914
1.176740136077769
1.176695062276866
1.17665242627578
1.176591501475175
1.176525978216748
1.176459082803854
1.176388647327265
1.176315239468763
1.176242095870043
1.176175158704869
1.176106143191113
1.176052424513078
1.176028807114169
1.176010730903144
1.176001240866327
1.175997082629363
1.176001062959901
1.176001959774266
1.176011357125655
1.176022292044514
1.176031826251517
1.176050204912874
1.176075275605998
1.17609861672325
1.176133629921162
1.176180471659849
1.176230620485051
1.176288204646583
1.176357825053428
1.176428670966736
1.176498851059132
1.176573181350981
1.17665148390162
1.1767092387219
1.17678294911792
1.176812656611004
1.176845470214994
1.176856879120872
1.176862995796373
1.176863441084179
1.176861556232316
1.176854165105959
1.176836891943087
1.176822789128217
1.176805108204047
1.176774051891846
1.176746260212474
1.176713030940692
1.176663224122459
1.176612486159549
1.176557945037652
1.176489273434496
1.176421422648132
1.176347360325345
1.176276127014319
1.176206071068526
1.176140088503708
1.176071550016306
1.176040342319425
1.176015251843807
1.176002143253285
1.175999113650103
1.175998817925468
1.176003281875613
1.176012044514049
1.176021718366733
1.176035007460549
1.176055301148471
1.176075838270261
1.176100343530793
1.176131505691992
1.176170606353428
1.176218402323022
1.17627208458326
1.176334587714024
1.176396809379372
1.176472891786466
1.176545658761783
1.176615606935221
1.176687905456353
1.17675379486274
1.176806101630109
1.176835722964658
1.176857258507851
1.176867795100753
1.176869980279321
1.176868864778377
1.176861034789704
1.176848612876898
1.176835101334881
1.176811740798315
1.176784805748088
1.176758904411424
1.176720871794619
1.176680622098321
1.176636101944192
1.176578077267983
1.17652139718896
1.176456385146565
1.176384506704891
1.176314381971052
1.176240790800315
1.17616871139917
1.176110130309098
1.176049287527106
1.176027509919088
1.176008333601188
1.175996002666504
1.175995545283659
1.176002727817414
1.17600958608103
1.176016335244181
1.176034051085555
1.176050570600456
1.176070848276108
1.176099700225131
1.176126810110919
1.176158412767724
1.176204559198412
1.176253853847286
1.176305560284195
1.176369545425386
1.176438002239713
1.176507937961924
1.176579387677336
1.176653479441838
1.176717834240354
1.176783906059583
1.176820950118231
1.176847259424938
1.176866427170127
1.176870134459679
1.176866960610189
1.176864881327461
1.176854116695439
1.176834826884357
1.176820781123774
1.17679456756647
1.176760807402681
1.176734964307387
1.176696333691008
1.176648581686459
1.176602250363295
1.176548099112251
1.176483731187955
1.176422740409965
1.176350815035253
1.176281318719074
1.176212275119204
1.176146038042053
1.176074745085642
1.176044294046369
1.176018416862546
1.176004738604131
1.17600226393958
1.176003345864859
1.176007805519374
1.176020168298566
1.176033180753978
1.176048374312665
1.176073405444654
1.176096766163704
1.176124348163256
1.176156639918389
1.176193587076391
1.176241650008348
1.176290478823281
1.17634651882683
1.176407460722733
1.176478119254615
1.176547529876408
1.17661695118003
1.176688817052891
1.176756803264685
1.176807101865288
1.176840652369967
1.17686134541262
1.176870270183559
1.176873377232681
1.176869653581093
1.176858224086202
1.176845057522126
1.176827976586746
1.176799043950836
1.176772785873023
1.176743173956409
1.176699074661942
1.176659921334784
1.176615933796949
1.17655745117159
1.176503519747567
1.176443173632583
1.176375183490187
1.176309038633887
1.176236820810386
1.176169058004346
1.176109370934682
1.17604622871049
1.17602413625327
1.176004432712789
1.175991709717938
1.175993303657574
1.176000260392318
1.176009858782245
1.176020700160324
1.176040780994112
1.176060929147499
1.176085002930445
1.176118013744662
1.176145999913661
1.1761811389991
1.176226488729048
1.176270260981575
1.176320878066946
1.176382166511674
1.176441281079885
1.176512240593787
1.176578022586474
1.176645660928221
1.176714368881751
1.176781330654042
1.176816340666919
1.17685191243323
1.176867275181006
1.176872105673177
1.176869978713069
1.176864865047359
1.176852791954985
1.17683375992289
1.176808815165058
1.176784535880988
1.176749120904524
1.176711191888729
1.176673611330374
1.176624821164771
1.176574914821124
1.176523502273247
1.176460680059725
1.176400605392274
1.176334697641113
1.176263121816434
1.176202201335453
1.176133481019
1.176068127604208
1.176028782486612
1.17600536255789
1.175987047635205
1.175986288694254
1.17598785800726
1.175995415300951
1.176011496903832
1.176024915858107
1.176046442872968
1.17607356585416
1.176097440161072
1.176131512836558
1.176164177095419
1.176200722096262
1.176249286087995
1.176295367653882
1.176347129591844
1.176405459067207
1.176470418398616
1.176536149238274
1.176602599115466
1.176672972887877
1.176733302258438
1.176793252166138
1.176823988928849
1.176851502818881
1.17686273801533
1.176865380105968
1.17686131735794
1.176848652344219
1.176833174006399
1.176812147815845
1.176780769218611
1.176752579901872
1.176716947509628
1.176670813142191
1.176632410878448
1.176582000221103
1.176525165703232
1.176475398272768
1.176413346964329
1.176347018766183
1.17628559817931
1.176218667797078
1.176145871937422
1.176096598885503
1.176029386507876
1.176008093601462
1.175980228751002
1.175971161342571
1.175968652841468
1.175977456627603
1.17599220229415
1.176001621918298
1.176020650048505
1.176049830223468
1.176071884753578
1.176105356542039
1.176141704019088
1.176173120039247
1.17621953304194
1.176265430737295
1.176312471544034
1.176373638502436
1.176429545930546
1.176495005539963
1.176560982305607
1.176622649809284
1.176692449463912
1.176754686691675
1.176795445708839
1.176832304292526
1.176852243499414
1.176859515724341
1.176858058087753
1.176852165368617
1.176839712438794
1.176818854165951
1.176792632826189
1.176763299463079
1.176723262084843
1.176684986017416
1.176644394033282
1.176591070607021
1.176545566689009
1.176491487243921
1.176429600179003
1.176374148998537
1.176308851503562
1.176244851762413
1.176183478945847
1.176119473641724
1.176060931419028
1.176018002051938
1.175993570822726
1.175973381082013
1.175970003438997
1.175972256046003
1.175980904559341
1.175998457842057
1.176014416015222
1.176039819531224
1.176069668623039
1.176095331324019
1.176133144492964
1.176172016037402
1.176206343691847
1.176251680390162
1.176302520800363
1.176349596334326
1.176403572839744
1.176467791142501
1.176525745960452
1.176585904361252
1.176654044901605
1.176713996175409
1.176770544350312
1.176805068498427
1.176831514474983
1.176851077679942
1.176853870969442
1.176851758577883
1.176840540772909
1.1768271538667
1.176797550052807
1.176771969914355
1.176732915452289
1.176691475568815
1.17665020225268
1.176599355795465
1.17655128052677
1.176497143069363
1.176442653271708
1.176385901362826
1.176320889277185
1.176261690211905
1.176198920926621
1.176135046643966
1.1760793146847
1.176022196303071
1.17599070238514
1.17596748204975
1.175951273564178
1.175949849994357
1.175953749922965
1.175970455074298
1.175982372343187
1.176003931848288
1.176037778068457
1.17606444203695
1.176101209677253
1.176139962551633
1.176177920289648
1.176220812933899
1.176265765709222
1.176316717841945
1.176367551559367
1.176422304444405
1.176484833538641
1.17654098079297
1.176603840959596
1.176663990106014
1.176726349253866
1.176769955839018
1.17680547891475
1.176826649516549
1.17684099428464
1.176842745640097
1.176836910074307
1.176825528497804
1.17680530357655
1.176775173712731
1.176740905435214
1.176702913917623
1.176656408592671
1.176610074747665
1.176559879015057
1.176505569341137
1.17645225311094
1.176390681392976
1.176333874323145
1.176273782439287
1.176209462469183
1.176151167797838
1.176093128254414
1.176035972111543
1.175990853528276
1.175969843045812
1.175942716487746
1.175933518133611
1.175938282724341
1.175944820778543
1.175961958172573
1.17597838052507
1.176011569898114
1.176040681786573
1.176068640692095
1.176114889479485
1.176153296095233
1.176187123807914
1.176238328452652
1.176284547612428
1.176327819262306
1.176383018056145
1.176438427286421
1.176493828291462
1.176554516647703
1.176617069050131
1.176676926744588
1.176724413937691
1.176768201403175
1.176801225046078
1.176816230569981
1.176827065233657
1.176827716834677
1.176821816733593
1.176804375340092
1.176778943811489
1.17675399244795
1.176708825169486
1.17666419051847
1.176619084597952
1.176562393475016
1.176510668455967
1.176453835100161
1.176394478903946
1.176336716106793
1.176274067648818
1.17621496153243
1.176158846544459
1.176098768534105
1.17604466869846
1.175995618049278
1.175963238350165
1.175935610308006
1.175923394080334
1.17591257103987
1.175921302013796
1.175933139801723
1.175949068024307
1.175970706304713
1.176006585619876
1.176034281541709
1.176073939030352
1.176119672592525
1.176157891614592
1.176202276970548
1.176250360435707
1.176297934043216
1.176345492138024
1.176395453184815
1.176452925623755
1.176508455837754
1.176561029922803
1.176621178865724
1.176678339083117
1.176723516778779
1.176759617983409
1.176787035917868
1.176803547092953
1.176808563744254
1.176808534167509
1.176799205860702
1.176775421150049
1.176751324753943
1.176717878233826
1.176666626151434
1.176622902291895
1.176570915019584
1.176513036924837
1.176459306280883
1.176396432547165
1.176336026066339
1.176278908607618
1.176214906609872
1.176155146323871
1.176103484863201
1.176043671794514
1.175990651752117
1.175954519899621
1.175927935428279
1.175904374371987
1.175891589414652
1.17589209442834
1.175897499039637
1.175915482959538
1.17593098662895
1.17595771256541
1.175994829934734
1.17602738198145
1.176069319620258
1.176121369958045
1.176159401074575
1.176205715429602
1.176259062326512
1.176299405300464
1.176351284815649
1.176403217921372
1.176453297251032
1.17650781229592
1.176561502287772
1.176620541236763
1.176663496991051
1.17670892316929
1.176741126049907
1.176764792388251
1.176780516677901
1.176785538404301
1.17678127675121
1.17676634693865
1.176747140408275
1.176708335854803
1.17667148678574
1.176624496699149
1.176564725996782
1.176514294180847
1.176458539916927
1.176392953786645
1.176332402267971
1.176272782172467
1.176210384947711
1.176153528865632
1.176097360704781
1.176037434887594
1.175992312542735
1.175944277939271
1.175915500340924
1.175888691144485
1.175875654484812
1.175866509985728
1.175867123137624
1.175879794640915
1.17589714297004
1.175916306012152
1.175947250368391
1.175981766902376
1.176019881327795
1.176065038926703
1.176114432965462
1.176161735012486
1.176210018626908
1.176262768215937
1.176309771538356
1.176359056009098
1.176409594898778
1.176456705329825
1.176507197835827
1.17655622492019
1.176608455433
1.176650589684334
1.176689072817261
1.176720961880969
1.176741226797641
1.176755393988419
1.17675996527722
1.176750663513036
1.17673231085758
1.176705699044737
1.17666549287388
1.176621115995045
1.176567787666023
1.176509723744936
1.176452805041233
1.17639213430411
1.176330512257693
1.176268076025214
1.17621137173706
1.17615340908036
1.176093676366552
1.176046362351448
1.17599250372007
1.175944839504618
1.17591083719803
1.175889656808941
1.17586556179185
1.175853578699665
1.17585450522867
1.175859865907726
1.175876213338084
1.175893852146896
1.175917554455913
1.175949573292628
1.175987249405712
1.176028850201706
1.176077369062689
1.176124194391259
1.176174809295631
1.176226841126117
1.176273951894142
1.176328668130029
1.176378409722139
1.176424426430836
1.176474609120137
1.176524880889117
1.176563782770994
1.176610458887818
1.176641662164375
1.176675406581392
1.176701244804916
1.176719631866585
1.176730500396853
1.176732457810901
1.176723984400494
1.176708732898408
1.176675032219238
1.176638745749933
1.176586499484873
1.176524057853014
1.17646927537657
1.176403083604522
1.176335779387982
1.176271846340819
1.176204551444101
1.176148436626148
1.17608540031681
1.176029939157581
1.175983963255699
1.175931572429253
1.175895197231086
1.175867052227694
1.175848966052715
1.175825094301856
1.175822924481778
1.175827055379126
1.175834068247872
1.175852032455688
1.175874073766772
1.175900886893448
1.175937421383035
1.175976654555851
1.176022640125012
1.17607079444548
1.17612122308764
1.176175512396497
1.176224808094726
1.176277133192281
1.176328301084773
1.176380204540316
1.176427551734448
1.176473866598541
1.176519203219752
1.176563172867903
1.176592788625274
1.176626630864864
1.176649128166043
1.176668788542819
1.17668234291617
1.17668969232429
1.176688101592427
1.176678621686436
1.176667259873073
1.176630225133285
1.176586809329115
1.176535435203431
1.176469396327289
1.176401870085795
1.176336391348487
1.176267630055274
1.176201239143993
1.176143955843648
1.176084728619129
1.176027390366196
1.175981179478798
1.175934583212988
1.175888422917072
1.175863580889894
1.175838744392477
1.175818815905052
1.175805619109181
1.175808130582792
1.175818301967277
1.175825831092418
1.175848029310333
1.175878512962357
1.175905877594381
1.175946569374423
1.175993930168416
1.176035432045644
1.176079363696665
1.176135437705629
1.176167403759809
1.176202377738539
1.176288470604112
)
;

boundaryField
{
    inlet
    {
        type            calculated;
        value           uniform 1.176271021779363;
    }
    outlet
    {
        type            calculated;
        value           uniform 1.176293823493917;
    }
    frontAndBack
    {
        type            empty;
    }
}


// ************************************************************************* //
