/*--------------------------------*- C++ -*----------------------------------*\
| =========                 |                                                 |
| \\      /  F ield         | OpenFOAM: The Open Source CFD Toolbox           |
|  \\    /   O peration     | Version:  v2012                                 |
|   \\  /    A nd           | Website:  www.openfoam.com                      |
|    \\/     M anipulation  |                                                 |
\*---------------------------------------------------------------------------*/
FoamFile
{
    version     2.0;
    format      ascii;
    class       volVectorField;
    location    "0.013";
    object      UMean;
}
// * * * * * * * * * * * * * * * * * * * * * * * * * * * * * * * * * * * * * //

dimensions      [0 1 -1 0 0 0 0];


internalField   nonuniform List<vector> 
1000
(
(-2.949126253524575e-05 0 0)
(1.445489238177601e-05 0 0)
(2.229248136586861e-05 0 0)
(5.313894817421744e-05 0 0)
(9.281369469035007e-05 0 0)
(0.0001284972241719313 0 0)
(0.0001661353070334108 0 0)
(0.0002555955797083885 0 0)
(0.0002792259300408986 0 0)
(0.000351673406938571 0 0)
(0.0004332806130568166 0 0)
(0.0004822852162237679 0 0)
(0.0005413303986598983 0 0)
(0.0006480347936118555 0 0)
(0.000673442452551207 0 0)
(0.00071313754150592 0 0)
(0.0008288927150500278 0 0)
(0.0008662412980387785 0 0)
(0.000860758592704305 0 0)
(0.0009250065656905439 0 0)
(0.0009815865229445709 0 0)
(0.0009839461305528514 0 0)
(0.0009465904275202901 0 0)
(0.001005743765465199 0 0)
(0.001008203085629674 0 0)
(0.0009591975775183496 0 0)
(0.0009018932187183372 0 0)
(0.0009336976317717138 0 0)
(0.0008948486665210708 0 0)
(0.000777224535297517 0 0)
(0.0007616777059705034 0 0)
(0.0007422984419469891 0 0)
(0.0006214252813727688 0 0)
(0.0005367190714639799 0 0)
(0.0005511668917949597 0 0)
(0.0004502059922217739 0 0)
(0.0003393448174196941 0 0)
(0.0003313718588483378 0 0)
(0.0002877426627804414 0 0)
(0.0001778169468767898 0 0)
(0.0001402642750461303 0 0)
(0.0001235776737378111 0 0)
(6.757939072980101e-05 0 0)
(2.971361757143062e-05 0 0)
(3.156201433984201e-06 0 0)
(1.195732211734052e-05 0 0)
(4.473195491498924e-06 0 0)
(-2.135379368634895e-05 0 0)
(2.239069874324283e-05 0 0)
(5.439487390913663e-05 0 0)
(5.219595523848979e-05 0 0)
(0.0001107649187691567 0 0)
(0.0001748933164307714 0 0)
(0.0001865540447127777 0 0)
(0.0002738353677112571 0 0)
(0.0003574557988887714 0 0)
(0.0003843971719434855 0 0)
(0.0004568151002328965 0 0)
(0.0005528851625180159 0 0)
(0.0005736643079485542 0 0)
(0.0006459647561317614 0 0)
(0.00073342027379365 0 0)
(0.0007524951205501306 0 0)
(0.0008023581296360348 0 0)
(0.0008966222487099167 0 0)
(0.0009030353629357645 0 0)
(0.0009137911796021236 0 0)
(0.0009818758170650609 0 0)
(0.0009987047024084587 0 0)
(0.0009648073551403025 0 0)
(0.0009821826476845638 0 0)
(0.0009896351224025759 0 0)
(0.0009442786395125631 0 0)
(0.0009112286898641299 0 0)
(0.0008972478732760724 0 0)
(0.0008369276881602604 0 0)
(0.0007758979733001971 0 0)
(0.0007313105854202377 0 0)
(0.0006653190462682116 0 0)
(0.0005886237024095577 0 0)
(0.0005289489287995284 0 0)
(0.0004840078377038436 0 0)
(0.0004029019000954762 0 0)
(0.00034152394343762 0 0)
(0.0002951018398279136 0 0)
(0.0002339129527256473 0 0)
(0.0001749950940677219 0 0)
(0.000133974142561268 0 0)
(8.663675493115398e-05 0 0)
(5.345816603276018e-05 0 0)
(3.748180709600006e-05 0 0)
(-6.34995681296279e-06 0 0)
(-2.757022907955928e-06 0 0)
(1.147104819358278e-05 0 0)
(3.193255831144072e-06 0 0)
(1.761757688166915e-05 0 0)
(6.678800325898211e-05 0 0)
(9.490471419343891e-05 0 0)
(0.0001317673368081102 0 0)
(0.0002000429451349305 0 0)
(0.0002498374445328878 0 0)
(0.0003142032692913527 0 0)
(0.000391961290556977 0 0)
(0.0004379654982564149 0 0)
(0.000493750632854635 0 0)
(0.0005828407893532621 0 0)
(0.000628344152564109 0 0)
(0.0006664902599089889 0 0)
(0.0007569894743266487 0 0)
(0.0007984187853740652 0 0)
(0.000825290370568871 0 0)
(0.0008976020355811236 0 0)
(0.0009335959905228348 0 0)
(0.0009238870847359424 0 0)
(0.000979044037543831 0 0)
(0.001003935999906941 0 0)
(0.0009599988680087237 0 0)
(0.0009796817615961703 0 0)
(0.0009889507919329343 0 0)
(0.0009111520081259198 0 0)
(0.0008877273721850576 0 0)
(0.0008862427500073313 0 0)
(0.0007880600817745066 0 0)
(0.0007230723513426769 0 0)
(0.0007113525805243105 0 0)
(0.0006111928883916378 0 0)
(0.0005297502641857049 0 0)
(0.0005196873834130752 0 0)
(0.0004378577291798753 0 0)
(0.0003421793247175399 0 0)
(0.0003342519481009191 0 0)
(0.000271280620696847 0 0)
(0.0001764647882569688 0 0)
(0.0001614947218747748 0 0)
(0.0001349735803775651 0 0)
(4.597261264894645e-05 0 0)
(4.028965752545078e-05 0 0)
(4.68276522974052e-05 0 0)
(-2.223267804251123e-05 0 0)
(-7.033487428875018e-06 0 0)
(3.38955404692026e-05 0 0)
(3.90678174932194e-06 0 0)
(2.506675683412776e-05 0 0)
(0.0001101719225200002 0 0)
(0.0001172645205909966 0 0)
(0.0001528415094087338 0 0)
(0.0002614628861024364 0 0)
(0.0002901287178790458 0 0)
(0.0003497364150003439 0 0)
(0.0004388766895740545 0 0)
(0.0004793156422603499 0 0)
(0.0005254636645566367 0 0)
(0.0006267016115657558 0 0)
(0.0006566281121595236 0 0)
(0.0006939042767761707 0 0)
(0.000792277852505043 0 0)
(0.0008163085739434394 0 0)
(0.0008396847440323381 0 0)
(0.0009153111700027161 0 0)
(0.0009428160430176734 0 0)
(0.0009280132946842513 0 0)
(0.0009870424315080381 0 0)
(0.001000668799497878 0 0)
(0.0009521691201541656 0 0)
(0.0009732475109378897 0 0)
(0.0009719285647452907 0 0)
(0.000900156649936516 0 0)
(0.0008674389768871687 0 0)
(0.0008621068668357592 0 0)
(0.0007551412869233283 0 0)
(0.0006972054998312107 0 0)
(0.000672432844804944 0 0)
(0.0005718131423443188 0 0)
(0.0005106735865269495 0 0)
(0.0004792055135718517 0 0)
(0.0003919438424181279 0 0)
(0.000315834085772991 0 0)
(0.000307437239306338 0 0)
(0.0002132902737193575 0 0)
(0.0001497607035990863 0 0)
(0.0001386688541757029 0 0)
(7.871775040982542e-05 0 0)
(2.255818785815336e-05 0 0)
(2.880532064576711e-05 0 0)
(-1.669943313888721e-06 0 0)
(-3.986538019082854e-05 0 0)
(1.382749990331142e-06 0 0)
(3.161049284615945e-06 0 0)
(-6.062944934899686e-06 0 0)
(6.493430678506472e-05 0 0)
(0.000109019288850436 0 0)
(0.0001320363476832209 0 0)
(0.0002235090156551937 0 0)
(0.0003011409037600878 0 0)
(0.0003499583539697037 0 0)
(0.000431932498468344 0 0)
(0.0005238911651053132 0 0)
(0.0005751008168657451 0 0)
(0.0006537200786338035 0 0)
(0.0007484206116871334 0 0)
(0.0008000747314032649 0 0)
(0.000874263091629104 0 0)
(0.0009526450324645504 0 0)
(0.001011393277704811 0 0)
(0.001068338266506559 0 0)
(0.001118129066113156 0 0)
(0.001161961160662113 0 0)
(0.00120614919272831 0 0)
(0.001220912820566377 0 0)
(0.001226930179128353 0 0)
(0.001248487497750347 0 0)
(0.001228857399735393 0 0)
(0.001188264150061545 0 0)
(0.001175619969653678 0 0)
(0.001127591831619233 0 0)
(0.001038853156224582 0 0)
(0.000998755632988871 0 0)
(0.0009309053827725698 0 0)
(0.000830943684541981 0 0)
(0.0007708266477001292 0 0)
(0.0007101104995452725 0 0)
(0.0006055325918852072 0 0)
(0.0005419679506765187 0 0)
(0.000485448882394279 0 0)
(0.0003950656862210291 0 0)
(0.0003217216416544502 0 0)
(0.000279133621192076 0 0)
(0.0002059740311510142 0 0)
(0.0001493755370151595 0 0)
(0.0001160114856802731 0 0)
(7.517676259186913e-05 0 0)
(3.855414786041988e-05 0 0)
(4.455156948299067e-05 0 0)
(2.670585514476442e-05 0 0)
(3.166369979177925e-05 0 0)
(5.91115078617465e-05 0 0)
(9.510883210796009e-05 0 0)
(0.0001244369424921478 0 0)
(0.0001849424926644935 0 0)
(0.0002586241309817784 0 0)
(0.0003089067881970353 0 0)
(0.000383782624780056 0 0)
(0.0004585170574370694 0 0)
(0.0005272811608543769 0 0)
(0.0005877084437171511 0 0)
(0.0006728777691862514 0 0)
(0.0007379896168824749 0 0)
(0.0007938297462417282 0 0)
(0.000876854850995872 0 0)
(0.0009275983315892068 0 0)
(0.0009893951731220815 0 0)
(0.001038833380915676 0 0)
(0.001095491180260519 0 0)
(0.001117399073081788 0 0)
(0.001148973916216194 0 0)
(0.001168912005814566 0 0)
(0.001174677883611906 0 0)
(0.001167975554183119 0 0)
(0.001145217674835903 0 0)
(0.001119463711028179 0 0)
(0.001075331338234919 0 0)
(0.001019556554451629 0 0)
(0.0009524451549762597 0 0)
(0.0008907282179223166 0 0)
(0.0008088111609915908 0 0)
(0.0007306313975049175 0 0)
(0.0006668890653364869 0 0)
(0.0005767925011474868 0 0)
(0.0005045752469306113 0 0)
(0.0004388352969251169 0 0)
(0.0003649368754570849 0 0)
(0.0002801544730258521 0 0)
(0.0002386616212770353 0 0)
(0.0001691654759253517 0 0)
(0.0001092700370034391 0 0)
(6.204031468536413e-05 0 0)
(3.501960113303719e-05 0 0)
(-8.826068524453635e-06 0 0)
(-3.215710157860235e-05 0 0)
(-3.047241368566743e-05 0 0)
(-2.956067997920351e-05 0 0)
(-2.308001235677467e-05 0 0)
(1.165178188360064e-05 0 0)
(4.29496600039845e-05 0 0)
(9.732390543355047e-05 0 0)
(0.0001502318776638462 0 0)
(0.000223161723523845 0 0)
(0.0002820909731251239 0 0)
(0.0003598608195566891 0 0)
(0.0004262401384050641 0 0)
(0.0004956833067987344 0 0)
(0.0005689716241948619 0 0)
(0.0006332716013376849 0 0)
(0.0007025992286874928 0 0)
(0.000769327369327662 0 0)
(0.0008284201511962834 0 0)
(0.0008800393924368119 0 0)
(0.0009494484131929926 0 0)
(0.0009813521992162568 0 0)
(0.001020931886063211 0 0)
(0.00106334241822296 0 0)
(0.001069713467959925 0 0)
(0.001083480964300152 0 0)
(0.001091503068430989 0 0)
(0.001072796964087167 0 0)
(0.001029942828008511 0 0)
(0.001018601250783222 0 0)
(0.0009596902689101943 0 0)
(0.0008854985827316937 0 0)
(0.0008293703034423424 0 0)
(0.0007629953697671033 0 0)
(0.000676040988565093 0 0)
(0.0005985764864606634 0 0)
(0.000533351320637013 0 0)
(0.0004380885175506484 0 0)
(0.000378007772301803 0 0)
(0.0003085308776086635 0 0)
(0.0002276682670614517 0 0)
(0.0001672956726810051 0 0)
(0.0001136367244299904 0 0)
(4.727019190843262e-05 0 0)
(3.193840414969982e-07 0 0)
(-3.306833633987899e-05 0 0)
(-8.108893067565101e-05 0 0)
(-9.731232814473264e-05 0 0)
(-0.0001131971112661919 0 0)
(-0.0001157097283134955 0 0)
(-0.0001056192622107537 0 0)
(-8.106765998879185e-05 0 0)
(-6.193251687674261e-05 0 0)
(-9.306024266582798e-06 0 0)
(5.53550969643019e-05 0 0)
(9.678003860590015e-05 0 0)
(0.0001721432840849087 0 0)
(0.0002522262140281131 0 0)
(0.0003050965098506252 0 0)
(0.0003817077169434216 0 0)
(0.0004677610579831794 0 0)
(0.0005141615432201079 0 0)
(0.0005800577232255646 0 0)
(0.0006643878749461255 0 0)
(0.000716941124173768 0 0)
(0.00076385062918369 0 0)
(0.0008250394269179673 0 0)
(0.0008795076160560877 0 0)
(0.0009075312954478114 0 0)
(0.0009457181874236346 0 0)
(0.0009705206600633732 0 0)
(0.0009786665836639943 0 0)
(0.000986875499066445 0 0)
(0.0009842266413834723 0 0)
(0.0009527251748988663 0 0)
(0.0009154500073593499 0 0)
(0.0008842364759979465 0 0)
(0.0008172605282794781 0 0)
(0.0007580832562352826 0 0)
(0.0006830834125892407 0 0)
(0.000612213057558505 0 0)
(0.0005257698552674269 0 0)
(0.0004571626587891435 0 0)
(0.0003705855989396257 0 0)
(0.000300165357607594 0 0)
(0.0002269623131013694 0 0)
(0.0001459852032765984 0 0)
(9.239450031373601e-05 0 0)
(2.932436776473646e-05 0 0)
(-3.990023094662117e-05 0 0)
(-8.333728204526917e-05 0 0)
(-0.0001215656748544628 0 0)
(-0.0001733803746044564 0 0)
(-0.0001959405779468185 0 0)
(-0.000204009076867374 0 0)
(-0.0002348645209955508 0 0)
(-0.0002185365606213993 0 0)
(-0.000193318470896105 0 0)
(-0.0001819180899513021 0 0)
(-0.0001522969010894336 0 0)
(-7.179639335573273e-05 0 0)
(-3.9993154425891e-05 0 0)
(2.817554759736039e-05 0 0)
(0.0001154608577691458 0 0)
(0.0001638803742856989 0 0)
(0.0002441922178551742 0 0)
(0.0003129083992409657 0 0)
(0.000384878803781829 0 0)
(0.0004388999340096365 0 0)
(0.0005188371073766447 0 0)
(0.0005806626905841457 0 0)
(0.0006259247772204678 0 0)
(0.0006905583469290963 0 0)
(0.0007435246650213648 0 0)
(0.0007756722584104534 0 0)
(0.0008063080172570424 0 0)
(0.000854469848347498 0 0)
(0.0008502632658350694 0 0)
(0.0008622248599670542 0 0)
(0.0008713727270150871 0 0)
(0.0008477163148269791 0 0)
(0.0008096743520156773 0 0)
(0.0007848213378285441 0 0)
(0.0007374406846742246 0 0)
(0.0006593794186455932 0 0)
(0.0006007487025500478 0 0)
(0.0005367435096075878 0 0)
(0.0004476666544637122 0 0)
(0.0003651824912478839 0 0)
(0.0003043798268270684 0 0)
(0.0002139046236383962 0 0)
(0.0001367446704289095 0 0)
(7.834155625298812e-05 0 0)
(-4.837159612675481e-06 0 0)
(-5.442908478938523e-05 0 0)
(-0.0001235152893446627 0 0)
(-0.000170266141898976 0 0)
(-0.0002216287917991525 0 0)
(-0.0002627657951216746 0 0)
(-0.0002879805012745968 0 0)
(-0.0003172432515595357 0 0)
(-0.000339029820154113 0 0)
(-0.0003227773849961009 0 0)
(-0.0003177270503618571 0 0)
(-0.0003091628494134066 0 0)
(-0.0002692190585672683 0 0)
(-0.0002284064952957879 0 0)
(-0.0001712950526072818 0 0)
(-0.0001152652844947707 0 0)
(-4.176089049951766e-05 0 0)
(2.267637434834958e-05 0 0)
(8.964421722897172e-05 0 0)
(0.0001657846780812928 0 0)
(0.0002282988889714423 0 0)
(0.0002934188171211993 0 0)
(0.0003633222815897255 0 0)
(0.0004292249136439078 0 0)
(0.0004833552119766622 0 0)
(0.0005320643927987415 0 0)
(0.0005904665559447609 0 0)
(0.0006338332814721288 0 0)
(0.0006662940533221901 0 0)
(0.0006978094549480198 0 0)
(0.0007149421657123256 0 0)
(0.0007286743182009107 0 0)
(0.0007277039164863685 0 0)
(0.0007196195332632195 0 0)
(0.0006936930727548923 0 0)
(0.0006634415677837432 0 0)
(0.0006212753830187079 0 0)
(0.0005542410322951292 0 0)
(0.0004945958925426987 0 0)
(0.000433458729439718 0 0)
(0.0003370933321881688 0 0)
(0.0002716527913592839 0 0)
(0.000195012263807153 0 0)
(0.0001075342472086969 0 0)
(3.107854619489514e-05 0 0)
(-2.45304536047528e-05 0 0)
(-0.000112356473567487 0 0)
(-0.0001701288007955685 0 0)
(-0.0002303994405723923 0 0)
(-0.0002830282902133269 0 0)
(-0.0003343075041922405 0 0)
(-0.0003762323715043137 0 0)
(-0.0004044599104793908 0 0)
(-0.0004405919018251767 0 0)
(-0.0004468343522922109 0 0)
(-0.0004570819133053313 0 0)
(-0.0004539419113727154 0 0)
(-0.0004265227485897598 0 0)
(-0.0004096776204700712 0 0)
(-0.0003743650934430413 0 0)
(-0.0003115269808460975 0 0)
(-0.0002602706523666622 0 0)
(-0.0002017087460183317 0 0)
(-0.0001178913350393336 0 0)
(-5.841943740335058e-05 0 0)
(1.839732910024881e-05 0 0)
(8.886947041442683e-05 0 0)
(0.0001539779834002089 0 0)
(0.000215140810084944 0 0)
(0.0002849635986352531 0 0)
(0.0003490616708527771 0 0)
(0.0003998023466980018 0 0)
(0.0004517220885497587 0 0)
(0.0005018200723799813 0 0)
(0.0005394437842919002 0 0)
(0.0005641785495203873 0 0)
(0.0005995589618409061 0 0)
(0.0006072908607916384 0 0)
(0.0006014811754503044 0 0)
(0.0006149621359218528 0 0)
(0.0005958091167943325 0 0)
(0.0005596068688584646 0 0)
(0.0005223961841166065 0 0)
(0.0004876169171280644 0 0)
(0.0004057666131671608 0 0)
(0.000341244603521714 0 0)
(0.0002892967535652005 0 0)
(0.0001860387706575872 0 0)
(0.0001210876014864979 0 0)
(3.765272809164243e-05 0 0)
(-2.954549181993032e-05 0 0)
(-0.0001241143413990896 0 0)
(-0.0001768870288648716 0 0)
(-0.0002502777118034705 0 0)
(-0.0003093566476990075 0 0)
(-0.0003720359723970244 0 0)
(-0.0004091823294766988 0 0)
(-0.0004641109247732245 0 0)
(-0.0004987487901201896 0 0)
(-0.000520414538082138 0 0)
(-0.0005419844632323474 0 0)
(-0.0005597935194820293 0 0)
(-0.0005447740891771466 0 0)
(-0.0005318307518380196 0 0)
(-0.0005245314567858931 0 0)
(-0.0004729017081238863 0 0)
(-0.0004339811666908798 0 0)
(-0.000392022637980239 0 0)
(-0.0003057021021079212 0 0)
(-0.0002424300155217856 0 0)
(-0.0001851384832444448 0 0)
(-8.920062161054671e-05 0 0)
(-4.299527776842978e-05 0 0)
(4.315743108020388e-05 0 0)
(0.000105762829829551 0 0)
(0.0001686957965398685 0 0)
(0.0002340723354669243 0 0)
(0.0003032787579612684 0 0)
(0.0003383553076855851 0 0)
(0.0004015222900831894 0 0)
(0.0004443832397923939 0 0)
(0.000475448209243177 0 0)
(0.0004963291805463915 0 0)
(0.000534896742438107 0 0)
(0.0005209894420207967 0 0)
(0.0005329388247311555 0 0)
(0.0005343179315132436 0 0)
(0.000507086867330816 0 0)
(0.000464476597097482 0 0)
(0.0004347243735789244 0 0)
(0.0003702005998224568 0 0)
(0.0003098242913287045 0 0)
(0.0002542322990219842 0 0)
(0.000161195171218248 0 0)
(8.986172176140509e-05 0 0)
(1.934695543440733e-05 0 0)
(-5.85543919906575e-05 0 0)
(-0.0001425321075290675 0 0)
(-0.0002159618166144146 0 0)
(-0.0002613080937206849 0 0)
(-0.0003320813751990023 0 0)
(-0.0004080436957550349 0 0)
(-0.0004355998850076033 0 0)
(-0.0004739025629650736 0 0)
(-0.0005355719907305743 0 0)
(-0.0005468066173336457 0 0)
(-0.0005640533639510164 0 0)
(-0.0005974925716699385 0 0)
(-0.0005779955089753947 0 0)
(-0.0005661910358620686 0 0)
(-0.0005537035756773565 0 0)
(-0.0005298665775473899 0 0)
(-0.0004638679209985043 0 0)
(-0.0004259162226461994 0 0)
(-0.0003812445167333582 0 0)
(-0.0002776841205074337 0 0)
(-0.0002255179484332533 0 0)
(-0.0001499101122487537 0 0)
(-6.704773557835826e-05 0 0)
(7.109621119722294e-06 0 0)
(5.676092090746269e-05 0 0)
(0.0001467056527733187 0 0)
(0.0002071940107020582 0 0)
(0.0002667775582706382 0 0)
(0.0003285297222177124 0 0)
(0.0003869079062035628 0 0)
(0.0004288756569831679 0 0)
(0.0004673954489479083 0 0)
(0.0005091358583628713 0 0)
(0.0005292845949086041 0 0)
(0.0005313590854180416 0 0)
(0.0005452484628144033 0 0)
(0.0005658298112777965 0 0)
(0.0005280596957299786 0 0)
(0.0004943892163476676 0 0)
(0.0004801916874172404 0 0)
(0.0004338768201379386 0 0)
(0.0003473049433548572 0 0)
(0.0003039882890225878 0 0)
(0.0002496711333417337 0 0)
(0.0001450937479369211 0 0)
(7.834872475548428e-05 0 0)
(1.587984556346323e-05 0 0)
(-8.522330437656369e-05 0 0)
(-0.0001511467598626788 0 0)
(-0.0001969030102590038 0 0)
(-0.0002794566875619816 0 0)
(-0.0003420841197566791 0 0)
(-0.0003722208953429125 0 0)
(-0.0004335797785119107 0 0)
(-0.0004749463002777301 0 0)
(-0.0004884161711034127 0 0)
(-0.0005210987157620942 0 0)
(-0.000547760890849751 0 0)
(-0.0005389874607182697 0 0)
(-0.0005204117551830093 0 0)
(-0.0005246142186669631 0 0)
(-0.0004929202429088611 0 0)
(-0.0004435418872004084 0 0)
(-0.0004143978413239352 0 0)
(-0.0003473436167201341 0 0)
(-0.0002765139127109054 0 0)
(-0.0002150743154019639 0 0)
(-0.0001347202620974416 0 0)
(-6.17513900915369e-05 0 0)
(1.035960519383224e-05 0 0)
(7.876435493558157e-05 0 0)
(0.0001572457183181244 0 0)
(0.0002126053054572319 0 0)
(0.0002852018294338452 0 0)
(0.0003478246375436074 0 0)
(0.0003927545029877712 0 0)
(0.0004531409166474522 0 0)
(0.0004917697533037292 0 0)
(0.000521635628921291 0 0)
(0.000552241484870559 0 0)
(0.0005685083711818129 0 0)
(0.0005808193611742906 0 0)
(0.000578086795693358 0 0)
(0.0005774083898460728 0 0)
(0.0005537276468338753 0 0)
(0.0005239491360116969 0 0)
(0.0004797358460978976 0 0)
(0.0004264959687253458 0 0)
(0.0003805462226832185 0 0)
(0.0002975052474778505 0 0)
(0.0002375235576910993 0 0)
(0.0001666326767302893 0 0)
(7.538556667168788e-05 0 0)
(9.628888735869562e-06 0 0)
(-6.373062872377274e-05 0 0)
(-0.0001483291417532541 0 0)
(-0.000191423685040409 0 0)
(-0.0002529138169447564 0 0)
(-0.0003166014079853955 0 0)
(-0.0003564321356453698 0 0)
(-0.0003932249727360797 0 0)
(-0.0004227680868279427 0 0)
(-0.0004606816289736776 0 0)
(-0.0004622891323762332 0 0)
(-0.0004659137387189894 0 0)
(-0.0004855230618180184 0 0)
(-0.0004431449305352442 0 0)
(-0.0004217878422943562 0 0)
(-0.0004021870984609524 0 0)
(-0.0003500513132521427 0 0)
(-0.0002888986439638348 0 0)
(-0.0002345191513907604 0 0)
(-0.0001639170742159977 0 0)
(-7.281697617392777e-05 0 0)
(-1.580599799644422e-06 0 0)
(6.172310597214124e-05 0 0)
(0.0001587287162645365 0 0)
(0.0002196115983026038 0 0)
(0.0002817989633975656 0 0)
(0.0003697680063161321 0 0)
(0.0004286984304227677 0 0)
(0.0004834275005121059 0 0)
(0.0005501175761575065 0 0)
(0.0005849010579480376 0 0)
(0.0006314649519405769 0 0)
(0.0006693188528533185 0 0)
(0.0006811594836524408 0 0)
(0.0007016901577740994 0 0)
(0.0007158934748438027 0 0)
(0.0007122970382732587 0 0)
(0.0006870050487479188 0 0)
(0.0006828814401936589 0 0)
(0.0006470146831580009 0 0)
(0.0005775400343474364 0 0)
(0.0005533393895434429 0 0)
(0.0004892049827862698 0 0)
(0.000408591378641432 0 0)
(0.0003549265394719779 0 0)
(0.000274889852856004 0 0)
(0.0001891271731998046 0 0)
(0.0001334292421224272 0 0)
(4.68147580575946e-05 0 0)
(-2.298245330820773e-05 0 0)
(-5.346639759319072e-05 0 0)
(-0.0001287715942907113 0 0)
(-0.0001771825257117797 0 0)
(-0.0002052373702385844 0 0)
(-0.0002437525594338496 0 0)
(-0.0002708557254083708 0 0)
(-0.0002878051397180224 0 0)
(-0.0002902770728326118 0 0)
(-0.0002888511031753982 0 0)
(-0.0002804849297939873 0 0)
(-0.00024576309470122 0 0)
(-0.000226256741770009 0 0)
(-0.000176092160979006 0 0)
(-0.0001245011827064899 0 0)
(-7.31503908979091e-05 0 0)
(1.290741114655798e-05 0 0)
(8.650247454780816e-05 0 0)
(0.0001551647411761627 0 0)
(0.0002487638762065517 0 0)
(0.0003296710078571428 0 0)
(0.000379989369347652 0 0)
(0.0004704569594067522 0 0)
(0.0005526988880009632 0 0)
(0.0006102736038711993 0 0)
(0.0006679672491813326 0 0)
(0.0007607557879707169 0 0)
(0.000781748949546709 0 0)
(0.0008254971579734712 0 0)
(0.000887535179415981 0 0)
(0.0009072694065482578 0 0)
(0.0009014802252003218 0 0)
(0.0009536032864341267 0 0)
(0.0009568357785521315 0 0)
(0.0009206235664619667 0 0)
(0.0009307863034041349 0 0)
(0.0009096340634838 0 0)
(0.0008507878250018102 0 0)
(0.0008141400888535557 0 0)
(0.0007823695651114512 0 0)
(0.0006907069638932632 0 0)
(0.0006381639395130419 0 0)
(0.000579736989747318 0 0)
(0.0004936290432157495 0 0)
(0.000420219044678154 0 0)
(0.0003460758272265125 0 0)
(0.00029735843537012 0 0)
(0.0002116149750862002 0 0)
(0.0001725729081776665 0 0)
(0.0001344840239204571 0 0)
(7.869705360468464e-05 0 0)
(4.288580722349622e-05 0 0)
(2.981714846858491e-05 0 0)
(1.462704035386362e-05 0 0)
(-1.180336704608914e-05 0 0)
(2.871461566085998e-06 0 0)
(1.994237241494987e-05 0 0)
(3.87805935327511e-05 0 0)
(7.004810729238173e-05 0 0)
(0.0001052672399030207 0 0)
(0.0001720492360719857 0 0)
(0.0002132288666160743 0 0)
(0.0002990665635603041 0 0)
(0.0003669816148450809 0 0)
(0.0004541051729266593 0 0)
(0.0005248555667048681 0 0)
(0.0006263863676458579 0 0)
(0.0006986901801181257 0 0)
(0.000761308272362416 0 0)
(0.0008492684606313545 0 0)
(0.0009411456563591717 0 0)
(0.0009847791334646879 0 0)
(0.001061520760274213 0 0)
(0.001130685161398177 0 0)
(0.001176417216029556 0 0)
(0.001195396354316728 0 0)
(0.001270281289484237 0 0)
(0.001273410011089623 0 0)
(0.001286071342034087 0 0)
(0.001316600238390878 0 0)
(0.001325184331960274 0 0)
(0.001278738113285062 0 0)
(0.001303581836869712 0 0)
(0.001268507945335818 0 0)
(0.001197758576918998 0 0)
(0.00119398036719756 0 0)
(0.001129553162183928 0 0)
(0.001049014665000067 0 0)
(0.001009045330442164 0 0)
(0.000936905638849778 0 0)
(0.0008575444568099026 0 0)
(0.0008020166842916602 0 0)
(0.0007140476216757714 0 0)
(0.0006695823310870872 0 0)
(0.0006041854368374975 0 0)
(0.0005659950645268223 0 0)
(0.0005237183364905833 0 0)
(0.0004835132006669686 0 0)
(0.0004676403295725166 0 0)
(0.0004505290811684698 0 0)
(0.0004240431500702318 0 0)
(0.0004421827112546474 0 0)
(0.0004569198003653694 0 0)
(0.0004673665870783433 0 0)
(0.0005081943097179964 0 0)
(0.000558666887497569 0 0)
(0.0005900926628698757 0 0)
(0.0006662737457124504 0 0)
(0.000726584240257089 0 0)
(0.0008058703390953395 0 0)
(0.0008877955745685108 0 0)
(0.0009902768683377977 0 0)
(0.001051942132603281 0 0)
(0.001146950670359762 0 0)
(0.001250591755259093 0 0)
(0.001299735217633626 0 0)
(0.00139022503780228 0 0)
(0.001483194337973052 0 0)
(0.001538638460416835 0 0)
(0.001609079490424399 0 0)
(0.001684030709284163 0 0)
(0.001711604092135392 0 0)
(0.001769734139026616 0 0)
(0.001804836762176616 0 0)
(0.001801248164644146 0 0)
(0.00185757326637531 0 0)
(0.001853442694808304 0 0)
(0.001850176536492266 0 0)
(0.00184939324420722 0 0)
(0.001837620377933657 0 0)
(0.001797937150753292 0 0)
(0.00176106121052418 0 0)
(0.001724873401936056 0 0)
(0.001674702214736385 0 0)
(0.001606064576154546 0 0)
(0.001555448828209838 0 0)
(0.001491423188655077 0 0)
(0.001415226051328938 0 0)
(0.001351412667967213 0 0)
(0.001304663211275179 0 0)
(0.001225473425075995 0 0)
(0.001181822496121562 0 0)
(0.00116370300721034 0 0)
(0.001123056438931548 0 0)
(0.001079503985147467 0 0)
(0.001094608395117169 0 0)
(0.001070300893016835 0 0)
(0.001060538749568601 0 0)
(0.001088888501541061 0 0)
(0.00112461539493435 0 0)
(0.001127784598473943 0 0)
(0.001183919376771174 0 0)
(0.001258001621048682 0 0)
(0.001282618513866218 0 0)
(0.001357755575755047 0 0)
(0.001470753809432037 0 0)
(0.001513494232692623 0 0)
(0.00161396313122297 0 0)
(0.001734293247539028 0 0)
(0.001790231005032896 0 0)
(0.001878687684361156 0 0)
(0.001996450997153089 0 0)
(0.00206224042209369 0 0)
(0.002128211299869549 0 0)
(0.002237630446678116 0 0)
(0.002296664135037453 0 0)
(0.002370755893035067 0 0)
(0.00241985558383916 0 0)
(0.002498913207692135 0 0)
(0.002513280114690427 0 0)
(0.002543750660910501 0 0)
(0.00257892382083543 0 0)
(0.002603375938127317 0 0)
(0.00259136194551862 0 0)
(0.002610594698416187 0 0)
(0.002603375761956852 0 0)
(0.002574021781896093 0 0)
(0.00254935914925957 0 0)
(0.002524006814970725 0 0)
(0.002467726192368369 0 0)
(0.002426007294151242 0 0)
(0.002385808295835488 0 0)
(0.002313687960414697 0 0)
(0.002241694923777408 0 0)
(0.002198879394887226 0 0)
(0.002128391512825579 0 0)
(0.002062278435278298 0 0)
(0.002040029130860694 0 0)
(0.00197953230532336 0 0)
(0.001955771874040559 0 0)
(0.001937372755702719 0 0)
(0.001924863168072515 0 0)
(0.001912990096466339 0 0)
(0.001914975330570316 0 0)
(0.001916201230999845 0 0)
(0.001959799560871047 0 0)
(0.001976909601326123 0 0)
(0.00203199216978998 0 0)
(0.002076519872038477 0 0)
(0.002141663256831872 0 0)
(0.002213341607967715 0 0)
(0.002276781072922104 0 0)
(0.002375103977782292 0 0)
(0.002454495599245839 0 0)
(0.002554889724824851 0 0)
(0.002651576119790585 0 0)
(0.002735916561874397 0 0)
(0.002821547544373292 0 0)
(0.002918989461135273 0 0)
(0.0029915065396973 0 0)
(0.003087870156716423 0 0)
(0.003162478528711017 0 0)
(0.003238895601462595 0 0)
(0.003299372781552887 0 0)
(0.003366764219256929 0 0)
(0.003411570576995046 0 0)
(0.003460599448564225 0 0)
(0.003458223126283585 0 0)
(0.003503723208820802 0 0)
(0.003524316384734729 0 0)
(0.003514526117958527 0 0)
(0.003516699290429426 0 0)
(0.003514342524330733 0 0)
(0.003480045958295969 0 0)
(0.003463558144283785 0 0)
(0.003423510536454569 0 0)
(0.003387173692630523 0 0)
(0.003334204833263814 0 0)
(0.003296540377756841 0 0)
(0.003234108838228161 0 0)
(0.003160786094346426 0 0)
(0.003117167991276628 0 0)
(0.003053264270983094 0 0)
(0.002996572936412206 0 0)
(0.002981088042675442 0 0)
(0.002929157856519313 0 0)
(0.002883477080714717 0 0)
(0.002907364581859683 0 0)
(0.002900116249070319 0 0)
(0.002861003449443698 0 0)
(0.002908911262166169 0 0)
(0.00292721535790634 0 0)
(0.002940497268089592 0 0)
(0.00301081118352773 0 0)
(0.00307641735554641 0 0)
(0.003079083097803995 0 0)
(0.003198907129970528 0 0)
(0.003286227325956815 0 0)
(0.003331392646588436 0 0)
(0.00344106957367495 0 0)
(0.003562253711348523 0 0)
(0.003619471293419128 0 0)
(0.003745351198825717 0 0)
(0.003849603409786804 0 0)
(0.003903803082904483 0 0)
(0.004011228509933064 0 0)
(0.00413233425357273 0 0)
(0.004168569865848164 0 0)
(0.004294738138136851 0 0)
(0.004354105782169142 0 0)
(0.004394742373540077 0 0)
(0.004499848786303594 0 0)
(0.00452722031153442 0 0)
(0.004563591603896014 0 0)
(0.00458368863656873 0 0)
(0.004626585616237599 0 0)
(0.004622581649558724 0 0)
(0.004631742235768743 0 0)
(0.004641372170873835 0 0)
(0.00462069046755228 0 0)
(0.004578619498196909 0 0)
(0.004591383892998824 0 0)
(0.004553996030133694 0 0)
(0.004482276190515871 0 0)
(0.004473353170327871 0 0)
(0.004426505076767764 0 0)
(0.004371136948790269 0 0)
(0.004291298258040163 0 0)
(0.00428086670060646 0 0)
(0.004173204471163387 0 0)
(0.004183675832470058 0 0)
(0.004160348716663644 0 0)
(0.004072856491591968 0 0)
(0.004093246064602003 0 0)
(0.004120812891376389 0 0)
(0.004057339086816359 0 0)
(0.004108684422851989 0 0)
(0.004155003404678773 0 0)
(0.004135060965521046 0 0)
(0.004212372463091672 0 0)
(0.004272203614350207 0 0)
(0.004326528236338915 0 0)
(0.004375925415253701 0 0)
(0.004482650187380621 0 0)
(0.004564611582603725 0 0)
(0.004646873501078364 0 0)
(0.004765985741245122 0 0)
(0.004835718152477276 0 0)
(0.004946530514070001 0 0)
(0.005102180254255899 0 0)
(0.005101150839087329 0 0)
(0.005228882222644075 0 0)
(0.005382873443321464 0 0)
(0.005363227666565692 0 0)
(0.005561284229825153 0 0)
(0.005608623724246363 0 0)
(0.005605887815075671 0 0)
(0.005799917556038567 0 0)
(0.005829660072969778 0 0)
(0.00571656511044325 0 0)
(0.00592592088291717 0 0)
(0.005982203559177952 0 0)
)
;

boundaryField
{
    inlet
    {
        type            calculated;
        value           uniform (-2.949126253524575e-05 0 0);
    }
    outlet
    {
        type            calculated;
        value           uniform (0.005982203559177952 0 0);
    }
    frontAndBack
    {
        type            empty;
    }
}


// ************************************************************************* //
