/*--------------------------------*- C++ -*----------------------------------*\
| =========                 |                                                 |
| \\      /  F ield         | OpenFOAM: The Open Source CFD Toolbox           |
|  \\    /   O peration     | Version:  v2012                                 |
|   \\  /    A nd           | Website:  www.openfoam.com                      |
|    \\/     M anipulation  |                                                 |
\*---------------------------------------------------------------------------*/
FoamFile
{
    version     2.0;
    format      ascii;
    class       volScalarField;
    location    "0.002";
    object      p;
}
// * * * * * * * * * * * * * * * * * * * * * * * * * * * * * * * * * * * * * //

dimensions      [1 -1 -2 0 0 0 0];


internalField   nonuniform List<scalar> 
1000
(
101311.5730564002
101314.2082910399
101307.3973031865
101302.0606245855
101295.9924820629
101290.5193286964
101285.9365662957
101281.8699919704
101277.991345904
101275.6576995916
101275.2205282551
101275.1620540835
101275.3941303944
101276.031655365
101277.6698249991
101280.5608267092
101284.563855484
101289.3376435258
101294.6575827013
101300.4394101028
101306.6540696253
101313.2708016407
101320.2048119603
101327.3091450903
101334.4005405824
101341.2015429459
101347.4000175421
101353.1717808385
101359.5058703923
101367.1735468493
101373.1914088758
101374.690607925
101374.70830862
101374.6432587788
101374.6206839012
101374.6785144916
101374.5337608752
101373.9518743818
101372.4688996695
101369.5759858346
101364.9190840037
101358.7494779603
101351.9063069268
101345.0968398917
101338.3587029611
101331.3158672373
101323.8305465053
101316.4637373845
101309.9143831532
101303.7260988718
101296.0535356071
101285.5766371824
101277.2150784993
101275.2359968929
101275.066093129
101275.0894250712
101275.2045195441
101275.3304594717
101275.4087395522
101275.434272103
101275.6371470303
101276.2935936948
101277.8106154693
101280.7977805063
101285.9168450669
101293.3035542438
101302.081967042
101310.8971390822
101318.8752306642
101325.750579551
101331.7147493524
101337.6857185002
101345.6792049417
101358.0568660721
101370.5839602847
101374.6138935813
101374.8285481194
101374.823706507
101374.8208589132
101374.8084887651
101374.7823708477
101374.7377889289
101374.6560750987
101374.5046297049
101374.207580951
101373.5535381907
101372.1076536791
101369.1451598375
101363.6462854472
101354.6605940928
101342.7821697507
101331.5130250266
101323.7868091173
101318.347803136
101312.1319685888
101301.3730271155
101285.5912823627
101276.3086886112
101275.2004390272
101275.1807356604
101275.1862394722
101275.180855709
101275.183926424
101275.2064845738
101275.2478819872
101275.300791425
101275.3699946465
101275.5150405742
101275.8580062147
101276.6340512289
101278.3170031624
101281.8466385469
101288.7997448673
101300.4294471036
101314.4106753651
101325.4592795125
101332.9910454763
101340.7029911974
101352.800103191
101367.7449639844
101374.281523976
101374.7954177331
101374.7996061714
101374.8002721794
101374.7951729115
101374.78488269
101374.7720198309
101374.7569987739
101374.734986625
101374.6976925511
101374.6285258455
101374.4755412663
101374.1182955874
101373.2988648703
101371.4477452087
101367.4422366987
101359.7681615023
101347.969853394
101333.8019215486
101318.3085692239
101300.0715718651
101282.6054363505
101275.7643198629
101275.2141099424
101275.2083895515
101275.2095981932
101275.2116381301
101275.2143864242
101275.2193773989
101275.2251934873
101275.2316682124
101275.2433273695
101275.2664702592
101275.3074386283
101275.3900406616
101275.5871419129
101276.054072234
101277.115967193
101279.3728225681
101283.7121292805
101291.4887651051
101305.6963806292
101331.2171797938
101361.4748624552
101373.8461416182
101374.7698984914
101374.7767930552
101374.7780257227
101374.7747095873
101374.7702291269
101374.7694954427
101374.7722366636
101374.7700296858
101374.7627680381
101374.7537905478
101374.7517264176
101374.7365664674
101374.6907425287
101374.600778149
101374.4046397741
101373.9699221286
101373.0376562021
101370.9021075696
101365.3454447079
101350.1923056079
101317.2599158501
101283.9298520117
101275.501191437
101275.2169074675
101275.2140991869
101275.2182571312
101275.222487864
101275.223049522
101275.2257055398
101275.2313771487
101275.2369411004
101275.2360006935
101275.2363077386
101275.2444702843
101275.2574958227
101275.2665698222
101275.3148280166
101275.4301178665
101275.6535717183
101276.2203013206
101277.7923740098
101282.3694756223
101296.0749815555
101328.2091569119
101364.0543288516
101374.3696660347
101374.7812753955
101374.7858321547
101374.7925766685
101374.7844373998
101374.7704742073
101374.7635710627
101374.7757021313
101374.7717170967
101374.742459113
101374.728580792
101374.7698238194
101374.7513572076
101374.6483921781
101374.5952501326
101374.7488886551
101374.5177662548
101373.8783779056
101373.3619978612
101369.4343098673
101357.5508385649
101327.0191114402
101288.7977823899
101275.7921294954
101275.1385852731
101275.1428049307
101275.1314713602
101275.1455625651
101275.2085735982
101275.2799114081
101275.2453357157
101275.1556344516
101275.2245988404
101275.3837345248
101275.3496783068
101275.101741111
101275.3231880738
101275.805891897
101275.9902706757
101275.8075020624
101276.5077961795
101278.32282585
101280.3843548927
101289.7525401912
101314.3821481895
101353.5016158302
101373.3010997135
101375.1218792235
101375.2042416577
101375.1019488691
101374.9341856443
101374.8608222473
101374.8820352748
101374.8102723172
101374.6545139302
101374.5502362881
101374.6375410031
101374.5358214827
101374.2494269817
101373.9654093692
101373.7995309861
101372.1741685577
101367.855244481
101355.4017079074
101335.6792652848
101325.8506317584
101325.005992748
101325.0000013569
101325.0000000006
101325.0000000006
101325.0000000005
101325.0000000005
101325.0000000005
101325.0000000006
101325.0000000006
101325.0000000006
101325.0000000005
101325.0000000005
101325.0000000005
101325.0000000005
101325.0000000005
101325.0000000006
101325.0000000006
101325.0000000006
101325.0000000006
101325.0000000006
101325.0000000006
101325.0000000006
101325.0000000007
101325.0000000007
101325.0000000006
101325.0000000006
101325.0000000007
101325.0000000006
101325.0000000006
101325.0000000006
101325.0000000005
101325.0000000005
101325.0000000006
101325.0000000006
101325.0000000006
101325.0000000005
101325.0000000005
101325.0000000005
101325.0000000006
101325.0000000006
101325.0000000006
101325.0000000006
101325.0000000006
101325.0000000006
101325.0000000005
101325.0000000005
101325.0000000004
101325.0000000005
101325.0000000004
101325.0000000004
101325.0000000004
101325.0000000003
101325.0000000004
101325.0000000004
101325.0000000003
101325.0000000005
101325.0000000005
101325.0000000005
101325.0000000006
101325.0000000006
101325.0000000006
101325.0000000006
101325.0000000005
101325.0000000005
101325.0000000005
101325.0000000006
101325.0000000006
101325.0000000005
101325.0000000005
101325.0000000005
101325.0000000004
101325.0000000004
101325.0000000005
101325.0000000005
101325.0000000004
101325.0000000004
101325.0000000005
101325.0000000005
101325.0000000005
101325.0000000005
101325.0000000005
101325.0000000005
101325.0000000005
101325.0000000005
101325.0000000005
101325.0000000005
101325.0000000005
101325.0000000005
101325.0000000005
101325.0000000004
101325.0000000004
101325.0000000005
101325.0000000005
101325.0000000005
101325.0000000005
101325.0000000005
101325.0000000005
101325.0000000005
101325.0000000005
101325.0000000005
101325.0000000005
101325.0000000006
101325.0000000007
101325.0000000006
101325.0000000006
101325.0000000006
101325.0000000006
101325.0000000006
101325.0000000005
101325.0000000005
101325.0000000004
101325.0000000003
101325.0000000004
101325.0000000003
101325.0000000005
101325.0000000005
101325.0000000006
101325.0000000006
101325.0000000006
101325.0000000006
101325.0000000007
101325.0000000007
101325.0000000007
101325.0000000006
101325.0000000006
101325.0000000007
101325.0000000007
101325.0000000007
101325.0000000006
101325.0000000005
101325.0000000004
101325.0000000004
101325.0000000004
101325.0000000003
101325.0000000003
101325.0000000004
101325.0000000003
101325.0000000003
101325.0000000002
101325.0000000002
101325.0000000002
101325.0000000001
101325.0000000001
101325.0000000002
101325.0000000003
101325.0000000002
101325.0000000002
101325.0000000003
101325.0000000003
101325.0000000002
101325.0000000002
101325.0000000002
101325.0000000003
101325.0000000003
101325.0000000003
101325.0000000002
101325.0000000002
101325.0000000002
101325.0000000003
101325.0000000004
101325.0000000005
101325.0000000005
101325.0000000003
101325.0000000003
101325.0000000003
101325.0000000002
101325.0000000002
101325.0000000002
101325.0000000002
101325.0000000001
101325
101325
101324.9999999999
101324.9999999999
101324.9999999999
101324.9999999999
101324.9999999999
101324.9999999999
101324.9999999998
101324.9999999998
101324.9999999998
101325
101325.0000000002
101325.0000000003
101325.0000000003
101325.0000000003
101325.0000000003
101325.0000000003
101325.0000000004
101325.0000000003
101325.0000000003
101325.0000000003
101325.0000000003
101325.0000000002
101325.0000000002
101325.0000000001
101325.0000000002
101325.0000000002
101325.0000000002
101325.0000000003
101325.0000000004
101325.0000000004
101325.0000000005
101325.0000000005
101325.0000000006
101325.0000000006
101325.0000000006
101325.0000000006
101325.0000000006
101325.0000000005
101325.0000000006
101325.0000000006
101325.0000000006
101325.0000000006
101325.0000000005
101325.0000000006
101325.0000000006
101325.0000000006
101325.0000000005
101325.0000000005
101325.0000000005
101325.0000000005
101325.0000000005
101325.0000000005
101325.0000000005
101325.0000000005
101325.0000000006
101325.0000000006
101325.0000000006
101325.0000000006
101325.0000000006
101325.0000000005
101325.0000000005
101325.0000000005
101325.0000000007
101325.0000000007
101325.0000000007
101325.0000000008
101325.0000000008
101325.0000000008
101325.0000000008
101325.0000000008
101325.0000000008
101325.0000000008
101325.0000000008
101325.0000000007
101325.0000000007
101325.0000000007
101325.0000000007
101325.0000000005
101325.0000000004
101325.0000000002
101325.0000000002
101325.0000000002
101325.0000000001
101325.0000000002
101325.0000000002
101325.0000000002
101325.0000000003
101325.0000000002
101325.0000000002
101325.0000000002
101325.0000000002
101325.0000000002
101325.0000000002
101325.0000000002
101325.0000000003
101325.0000000003
101325.0000000003
101325.0000000003
101325.0000000003
101325.0000000004
101325.0000000005
101325.0000000005
101325.0000000005
101325.0000000005
101325.0000000005
101325.0000000005
101325.0000000005
101325.0000000004
101325.0000000005
101325.0000000005
101325.0000000005
101325.0000000006
101325.0000000005
101325.0000000005
101325.0000000006
101325.0000000006
101325.0000000006
101325.0000000006
101325.0000000006
101325.0000000005
101325.0000000005
101325.0000000005
101325.0000000005
101325.0000000005
101325.0000000005
101325.0000000005
101325.0000000005
101325.0000000005
101325.0000000005
101325.0000000004
101325.0000000005
101325.0000000005
101325.0000000005
101325.0000000005
101325.0000000005
101325.0000000005
101325.0000000006
101325.0000000006
101325.0000000006
101325.0000000007
101325.0000000007
101325.0000000007
101325.0000000006
101325.0000000006
101325.0000000006
101325.0000000006
101325.0000000005
101325.0000000006
101325.0000000006
101325.0000000006
101325.0000000006
101325.0000000005
101325.0000000005
101325.0000000006
101325.0000000005
101325.0000000006
101325.0000000006
101325.0000000005
101325.0000000004
101325.0000000004
101325.0000000004
101325.0000000005
101325.0000000006
101325.0000000006
101325.0000000006
101325.0000000006
101325.0000000005
101325.0000000006
101325.0000000006
101325.0000000006
101325.0000000006
101325.0000000006
101325.0000000006
101325.0000000006
101325.0000000006
101325.0000000006
101325.0000000006
101325.0000000005
101325.0000000006
101325.0000000007
101325.0000000006
101325.0000000006
101325.0000000006
101325.0000000006
101325.0000000006
101325.0000000006
101325.0000000006
101325.0000000006
101325.0000000006
101325.0000000006
101325.0000000006
101325.0000000006
101325.0000000006
101325.0000000005
101325.0000000005
101325.0000000005
101325.0000000005
101325.0000000005
101325.0000000005
101325.0000000005
101325.0000000005
101325.0000000005
101325.0000000005
101325.0000000005
101325.0000000005
101325.0000000005
101325.0000000005
101325.0000000005
101325.0000000005
101325.0000000006
101325.0000000006
101325.0000000006
101325.0000000005
101325.0000000006
101325.0000000006
101325.0000000007
101325.0000000007
101325.0000000007
101325.0000000006
101325.0000000006
101325.0000000006
101325.0000000007
101325.0000000007
101325.0000000006
101325.0000000006
101325.0000000006
101325.0000000005
101325.0000000005
101325.0000000005
101325.0000000006
101325.0000000006
101325.0000000007
101325.0000000006
101325.0000000005
101325.0000000004
101325.0000000005
101325.0000000005
101325.0000000005
101325.0000000005
101325.0000000004
101325.0000000004
101325.0000000004
101325.0000000004
101325.0000000004
101325.0000000005
101325.0000000005
101325.0000000006
101325.0000000006
101325.0000000006
101325.0000000006
101325.0000000006
101325.0000000006
101325.0000000007
101325.0000000007
101325.0000000006
101325.0000000006
101325.0000000006
101325.0000000006
101325.0000000006
101325.0000000007
101325.0000000006
101325.0000000005
101325.0000000005
101325.0000000005
101325.0000000005
101325.0000000005
101325.0000000005
101325.0000000005
101325.0000000005
101325.0000000005
101325.0000000004
101325.0000000005
101325.0000000005
101325.0000000006
101325.0000000006
101325.0000000006
101325.0000000006
101325.0000000006
101325.0000000006
101325.0000000006
101325.0000000007
101325.0000000007
101325.0000000008
101325.0000000007
101325.0000000007
101325.0000000008
101325.0000000007
101325.0000000006
101325.0000000006
101325.0000000006
101325.0000000006
101325.0000000005
101325.0000000005
101325.0000000005
101325.0000000005
101325.0000000006
101325.0000000006
101325.0000000007
101325.0000000007
101325.0000000007
101325.0000000008
101325.0000000007
101325.0000000008
101325.0000000008
101325.0000000008
101325.0000000009
101325.0000000008
101325.0000000008
101325.0000000007
101325.0000000006
101325.0000000007
101325.0000000006
101325.0000000006
101325.0000000006
101325.0000000006
101325.0000000005
101325.0000000005
101325.0000000006
101325.0000000006
101325.0000000006
101325.0000000006
101325.0000000006
101325.0000000006
101325.0000000005
101325.0000000005
101325.0000000005
101325.0000000005
101325.0000000004
101325.0000000004
101325.0000000004
101325.0000000004
101325.0000000004
101325.0000000004
101325.0000000004
101325.0000000005
101325.0000000004
101325.0000000004
101325.0000000003
101325.0000000003
101325.0000000004
101325.0000000005
101325.0000000005
101325.0000000005
101325.0000000005
101325.0000000005
101325.0000000005
101325.0000000004
101325.0000000005
101325.0000000005
101325.0000000005
101325.0000000005
101325.0000000005
101325.0000000005
101325.0000000005
101325.0000000006
101325.0000000006
101325.0000000006
101325.0000000006
101325.0000000006
101325.0000000006
101325.0000000006
101325.0000000005
101325.0000000005
101325.0000000005
101325.0000000005
101325.0000000005
101325.0000000005
101325.0000000005
101325.0000000005
101325.0000000004
101325.0000000005
101325.0000000005
101325.0000000004
101325.0000000004
101325.0000000003
101325.0000000003
101325.0000000003
101325.0000000003
101325.0000000003
101325.0000000003
101325.0000000003
101325.0000000003
101325.0000000003
101325.0000000003
101325.0000000003
101325.0000000003
101325.0000000003
101325.0000000004
101325.0000000004
101325.0000000005
101325.0000000006
101325.0000000007
101325.0000000007
101325.0000000006
101325.0000000006
101325.0000000007
101325.0000000007
101325.0000000008
101325.0000000008
101325.0000000009
101325.0000000009
101325.0000000009
101325.0000000009
101325.0000000009
101325.0000000009
101325.0000000009
101325.0000000009
101325.0000000009
101325.0000000009
101325.0000000009
101325.0000000009
101325.0000000009
101325.000000001
101325.000000001
101325.0000000009
101325.0000000009
101325.0000000009
101325.0000000009
101325.0000000009
101325.0000000009
101325.000000001
101325.0000000011
101325.0000000013
101325.0000000014
101325.0000000015
101325.0000000016
101325.0000000016
101325.0000000017
101325.0000000017
101325.0000000017
101325.0000000017
101325.0000000017
101325.0000000017
101325.0000000017
101325.0000000017
101325.0000000016
101325.0000000015
101325.0000000015
101325.0000000014
101325.0000000014
101325.0000000014
101325.0000000013
101325.0000000013
101325.0000000012
101325.0000000011
101325.0000000011
101325.000000001
101325.000000001
101325.000000001
101325.0000000011
101325.0000000011
101325.0000000011
101325.0000000011
101325.0000000011
101325.0000000011
101325.0000000011
101325.0000000011
101325.0000000011
101325.0000000012
101325.0000000012
101325.0000000011
101325.0000000012
101325.0000000012
101325.0000000012
101325.0000000012
101325.0000000012
101325.0000000012
101325.0000000012
101325.0000000012
101325.0000000013
101325.0000000014
101325.0000000014
101325.0000000014
101325.0000000014
101325.0000000014
101325.0000000014
101325.0000000014
101325.0000000014
101325.0000000013
101325.0000000012
101325.0000000011
101325.0000000011
101325.000000001
101325.000000001
101325.000000001
101325.000000001
101325.0000000011
101325.0000000011
101325.0000000011
101325.0000000011
101325.0000000011
101325.0000000011
101325.0000000011
101325.0000000011
101325.0000000011
101325.0000000011
101325.0000000011
101325.0000000012
101325.0000000012
101325.0000000012
101325.0000000012
101325.0000000012
101325.0000000011
101325.0000000011
101325.000000001
101325.000000001
101325.0000000009
101325.000000001
101325.000000001
101325.000000001
101325.000000001
101325.000000001
101325.000000001
101325.000000001
101325.0000000009
101325.000000001
101325.000000001
101325.0000000009
101325.0000000009
101325.0000000009
101325.0000000009
101325.000000001
101325.000000001
101325.000000001
101325.000000001
101325.000000001
101325.000000001
101325.000000001
101325.0000000009
101325.000000001
101325.0000000009
101325.000000001
101325.000000001
101325.0000000009
101325.000000001
101325.0000000009
101325.0000000009
101325.0000000009
101325.0000000009
101325.000000001
101325.000000001
101325.0000000011
101325.0000000011
101325.0000000011
101325.0000000011
101325.0000000011
101325.0000000012
101325.0000000013
101325.0000000013
101325.0000000013
101325.0000000013
101325.0000000013
)
;

boundaryField
{
    inlet
    {
        type            uniformFixedValue;
        uniformValue    sine;
        uniformValueCoeffs
        {
            frequency       constant 3000;
            scale           constant 50;
            level           constant 101325;
        }
        value           uniform 101325;
    }
    outlet
    {
        type            waveTransmissive;
        gamma           1.4;
        fieldInf        101325;
        lInf            2.25;
        value           uniform 101325.0000000013;
    }
    frontAndBack
    {
        type            empty;
    }
}


// ************************************************************************* //
