/*--------------------------------*- C++ -*----------------------------------*\
| =========                 |                                                 |
| \\      /  F ield         | OpenFOAM: The Open Source CFD Toolbox           |
|  \\    /   O peration     | Version:  v2012                                 |
|   \\  /    A nd           | Website:  www.openfoam.com                      |
|    \\/     M anipulation  |                                                 |
\*---------------------------------------------------------------------------*/
FoamFile
{
    version     2.0;
    format      ascii;
    class       volScalarField;
    location    "0.012";
    object      pMean;
}
// * * * * * * * * * * * * * * * * * * * * * * * * * * * * * * * * * * * * * //

dimensions      [1 -1 -2 0 0 0 0];


internalField   nonuniform List<scalar> 
1000
(
101325.0165360979
101325.0166343639
101325.0251535296
101325.0202248193
101325.0308808911
101325.0451281272
101325.0441865335
101325.0945740925
101325.1462804425
101325.1767583107
101325.1908321547
101325.2380325795
101325.2464779313
101325.2395762627
101325.29639458
101325.340332971
101325.3625562239
101325.3725742359
101325.4477443374
101325.4104452416
101325.4230766839
101325.3958214449
101325.4625500375
101325.4421910126
101325.4461130547
101325.4567460135
101325.4645159117
101325.4183517027
101325.3776830859
101325.3376314745
101325.3427837886
101325.3137683736
101325.3257164388
101325.2748688653
101325.2387649589
101325.2199354935
101325.1896222349
101325.110737996
101325.1123129178
101325.0763042898
101325.0907781384
101325.0474636517
101325.056763719
101325.0101169117
101325.0015296269
101324.9749801148
101325.0040454102
101324.979197464
101325.0378974889
101324.9966810796
101325.0607831676
101325.0402243823
101325.0851495658
101325.063785475
101325.1353431079
101325.1311074353
101325.175142365
101325.196048875
101325.2911021246
101325.2820453552
101325.3060584632
101325.3409422999
101325.3662762447
101325.353148597
101325.3757416974
101325.4159979983
101325.4472644947
101325.4443293804
101325.4675107083
101325.4738736315
101325.4635962679
101325.4366095372
101325.4346895723
101325.4327455573
101325.4332493061
101325.4003257829
101325.3561429681
101325.3314421417
101325.3065394055
101325.2425782571
101325.207840354
101325.2271118384
101325.2041078009
101325.1493691136
101325.129779844
101325.1397661193
101325.0481530801
101325.0296339698
101325.0327460473
101324.991399532
101325.0001824704
101324.9965246825
101325.0054050613
101324.9647263083
101325.0125422446
101324.9855188046
101325.0053255559
101325.0300500401
101325.0377679926
101325.0704489643
101325.1148465637
101325.1811591753
101325.1794627243
101325.2254488166
101325.2339389976
101325.2856550949
101325.2626943686
101325.3031438105
101325.3192181334
101325.3571204422
101325.3852040636
101325.455312048
101325.4840350725
101325.4412165424
101325.4721176991
101325.4842935307
101325.4530326371
101325.4037959399
101325.4611874992
101325.4820850585
101325.4072171862
101325.3712241552
101325.3941579468
101325.3762144208
101325.2891604247
101325.2414256963
101325.272104717
101325.2370986768
101325.1608916819
101325.1389842073
101325.1416505429
101325.1266971906
101325.064233819
101325.0490432267
101325.0329463745
101324.9896169761
101324.9699089177
101324.948800752
101324.9585695773
101324.9669098272
101324.9837607388
101324.9878702415
101324.9919295464
101325.0293508033
101325.0692420692
101325.0160509618
101325.0708846762
101325.1319585677
101325.1184125319
101325.1439783271
101325.2006624615
101325.2725686822
101325.2677751443
101325.3026620051
101325.3495526678
101325.3927559747
101325.3819484335
101325.4122518973
101325.4288229079
101325.4438991131
101325.4245849395
101325.4545617516
101325.4723304594
101325.45770423
101325.4745489572
101325.4740369559
101325.4589001511
101325.3939092899
101325.4029205961
101325.3212893064
101325.3160247711
101325.2844381977
101325.2598876889
101325.2401183395
101325.2182484811
101325.1535254057
101325.1156619251
101325.0948075647
101325.079787875
101325.006551953
101325.0204125416
101325.0139163851
101325.0113286291
101324.9638207487
101324.9607111145
101324.987536537
101324.966130424
101324.9375926422
101324.9847946779
101325.0200876246
101325.0090212959
101325.0172426637
101325.0835002157
101325.1384411687
101325.1283454604
101325.1744415797
101325.2180815231
101325.2568711857
101325.2379945938
101325.2810993307
101325.3269664843
101325.3568548139
101325.3702236902
101325.4136624912
101325.4651028215
101325.4610319156
101325.4591072115
101325.4726674727
101325.4865278793
101325.4592257399
101325.4672026076
101325.4374772579
101325.4383068038
101325.3928445651
101325.3654553074
101325.3567852526
101325.348584988
101325.3012036153
101325.2941697319
101325.2599000605
101325.2116865069
101325.1537384716
101325.1137382765
101325.0818113778
101325.0718807223
101325.0436641953
101325.0146402763
101325.0340179622
101324.9994754178
101324.9775288025
101324.9247040449
101324.9463306794
101324.9179183271
101324.9440714522
101324.9572268357
101324.9840944227
101325.0203580889
101325.0636612736
101325.0565592051
101325.0898247121
101325.120347478
101325.1225151288
101325.1271716158
101325.1947051466
101325.2255046045
101325.2784577814
101325.315578847
101325.3798607604
101325.3926699864
101325.4118398259
101325.4299606891
101325.4183362745
101325.4430054426
101325.4700981588
101325.4621405126
101325.4802132268
101325.5098543718
101325.4728981803
101325.4476321292
101325.4115525253
101325.4056253869
101325.3626510163
101325.3330673982
101325.3299379948
101325.3081331976
101325.2499948918
101325.1887106483
101325.1669571474
101325.1059710444
101325.0865056268
101325.0762257424
101325.063419
101325.0384096749
101325.0204816109
101324.9956694124
101324.9414692252
101324.9128364342
101324.9127930664
101324.9052468712
101324.920117945
101324.9304650809
101324.976891927
101325.0105479484
101325.0140095744
101325.0265067389
101325.0752717049
101325.0985675886
101325.114490633
101325.1511610717
101325.2277404275
101325.2617253136
101325.2828722958
101325.2933251044
101325.3456917523
101325.3616599661
101325.3938874071
101325.4196440201
101325.4868141746
101325.5129286424
101325.5280225333
101325.5067171697
101325.5088054843
101325.4875013488
101325.440262459
101325.4284090381
101325.4074019138
101325.4438612201
101325.41849838
101325.4326637652
101325.3888292947
101325.4033696873
101325.3181145759
101325.2537491488
101325.1614485423
101325.0880080259
101325.0546728525
101325.0207680716
101325.0206036642
101325.0400516018
101325.0909829601
101325.0945648985
101325.1022993199
101325.0443393079
101324.9770347249
101324.9024435424
101324.8348187104
101324.7531603696
101324.781355485
101324.8907726637
101324.9942345444
101325.0925806535
101325.2781944065
101325.3955841792
101325.3831997095
101325.3292028585
101325.279919321
101325.2060461919
101325.1060181479
101325.0533822703
101325.0955766565
101325.2065157336
101325.298092475
101325.4310527411
101325.5922235164
101325.6913273456
101325.7621612091
101325.72458332
101325.6700265073
101325.4922141932
101325.3376527158
101325.148241657
101324.9827594807
101324.8071770056
101324.788782254
101324.8623336292
101324.938676843
101325.0704640464
101325.1628198779
101325.3057179882
101325.2453778639
101325.2258262862
101325.1166579742
101324.9766542007
101324.8677444155
101324.7703790332
101324.796068588
101324.7818700699
101324.8337538238
101324.8163183049
101324.8673153079
101324.8940239827
101324.9498498334
101325.0166517557
101325.0941664307
101325.1702152427
101325.2224962212
101325.2967084652
101325.289876382
101325.2659331855
101325.1886425336
101325.1280044914
101325.079849118
101325.1133281237
101325.1869089767
101325.2736053343
101325.3583385489
101325.4608652767
101325.4819457549
101325.4711664065
101325.4900861672
101325.4467659543
101325.4662316097
101325.4722650894
101325.490863063
101325.4984207242
101325.4826742505
101325.3739192246
101325.2129111019
101325.160005979
101325.0057674815
101324.9613192501
101324.9386402755
101325.0588795315
101325.1353353833
101325.2883723486
101325.3205044222
101325.2815767755
101325.1804699043
101325.0795151795
101324.9420024323
101324.7959410815
101324.7442142408
101324.7351906918
101324.875054533
101324.8552568405
101324.9159419149
101324.9695615908
101324.9578767149
101324.9886029723
101324.9763212078
101325.0949134477
101325.1735472258
101325.3364253047
101325.3575122569
101325.3582191976
101325.3240382751
101325.2390946538
101325.1418287718
101325.0615730411
101325.0940485052
101325.1795333256
101325.3439152658
101325.4748381607
101325.5828615893
101325.6615120457
101325.6204492543
101325.6069337348
101325.5368882518
101325.45969681
101325.5219509481
101325.4198902815
101325.3986006415
101325.3265107191
101325.301117853
101325.1970797378
101325.1409307847
101325.0654947514
101325.0886863302
101325.1579587969
101325.1986614337
101325.3014559077
101325.29496879
101325.3150584268
101325.1209498433
101325.0715403049
101324.9641792813
101324.9016033077
101324.8502891649
101324.8810174057
101324.9572840865
101324.9989619507
101325.0196112209
101325.0127809913
101324.911363669
101324.9195716856
101324.9933520654
101325.0640543915
101325.1896644313
101325.3293482981
101325.4271662114
101325.4323809043
101325.3834463704
101325.2552992488
101325.1938584801
101325.1773704139
101325.1682601746
101325.2294110108
101325.3578324445
101325.4761049488
101325.5485195941
101325.567865356
101325.5873695029
101325.5507032274
101325.5599751751
101325.6040029531
101325.613403892
101325.5410180465
101325.5900564946
101325.5247077847
101325.3202949574
101325.263088448
101325.1778669595
101325.0477491731
101325.0528142864
101325.0803795905
101325.1571210906
101325.2491706839
101325.3517320805
101325.3059630129
101325.2713353653
101325.201566187
101325.1199239652
101324.977542719
101324.8546116757
101324.8060371821
101324.8108419187
101324.8713598091
101324.8859276866
101324.8947283413
101324.8387356399
101324.9101892177
101324.9216965802
101324.9944408116
101325.0523268086
101325.3058778592
101325.4010301025
101325.5021562567
101325.4767202223
101325.3607828911
101325.2860447917
101325.1328015374
101325.0455761928
101324.9844232392
101325.1880211148
101325.3116131996
101325.5101731568
101325.6048541545
101325.6145347494
101325.680763251
101325.6303145309
101325.5707937084
101325.4751763926
101325.4118797921
101325.388319134
101325.3522810148
101325.2457807524
101325.1866842564
101325.1234683433
101325.0693306818
101324.9926715668
101324.995026426
101325.0621628521
101325.1101426178
101325.1830472523
101325.240624814
101325.1188913208
101325.1505359311
101325.0258992696
101324.9219483082
101324.7392510715
101324.7377809919
101324.7065630416
101324.8039324526
101324.8023354051
101324.77261106
101324.7522223484
101324.7198973416
101324.7913222561
101324.8297072247
101324.9310459615
101325.0231557985
101325.226059512
101325.246317383
101325.3089488233
101325.1938482538
101325.0978390898
101324.9795937546
101324.8826890327
101324.8302252926
101324.8752910601
101325.0595484601
101325.1443704747
101325.2930791763
101325.4194418702
101325.5214170273
101325.589050928
101325.4582782206
101325.3425717198
101325.1354837387
101325.0064204177
101325.0183300239
101324.9056160193
101324.9401211814
101324.8631843307
101324.8993870971
101324.8117288928
101324.634948243
101324.6998970457
101324.7149616047
101324.8092050106
101324.8997102781
101324.9857395934
101325.0067972886
101325.051042281
101324.8056251469
101324.57165039
101324.3400522202
101324.190088652
101324.2237447926
101324.2088773311
101324.2144565116
101324.318827291
101324.4285463743
101324.5309445094
101324.5463764697
101324.5972048657
101324.6172036328
101324.6682866065
101324.6657945129
101324.6651887122
101324.6457914014
101324.6435584921
101324.5875277078
101324.5068497579
101324.4129648248
101324.3233474266
101324.3820414192
101324.5065034426
101324.5345147326
101324.6792942644
101324.8851600473
101324.9134195944
101325.0504762273
101324.8876182221
101324.7543867515
101324.6456312157
101324.5056623661
101324.4368567081
101324.24582036
101324.1292962853
101323.9611016281
101323.8996733124
101323.79065493
101323.7840388037
101323.9480136897
101324.0799284648
101324.3108171984
101324.3845814981
101324.4356750774
101324.2743321706
101324.1618894166
101323.7792477442
101323.4581172332
101323.2640703408
101323.1417999133
101323.247291068
101323.2881423485
101323.3331663937
101323.3957833995
101323.4555672915
101323.4814232615
101323.5067058569
101323.5574410644
101323.5860393065
101323.800982437
101323.7661437902
101323.7384820427
101323.6495255125
101323.4203094746
101323.3053128291
101323.1085255034
101323.0670823349
101323.0576273248
101323.3592843693
101323.5236479322
101323.6521539781
101323.7416587632
101323.7290890313
101323.5458394403
101323.4039533515
101323.1743743066
101323.0046331913
101322.9354390759
101323.066895448
101323.0553858577
101323.0545500703
101323.0162371007
101322.8229063502
101322.6887680809
101322.4681176089
101322.2914430342
101322.2727352959
101322.3764383341
101322.4919492373
101322.5936888445
101322.5912590333
101322.3996414012
101322.2983401923
101321.949010681
101321.6761956295
101321.6041532537
101321.5503246007
101321.6399614113
101321.7343285885
101321.7066069976
101321.6604273461
101321.692624546
101321.6074682358
101321.637839062
101321.6933327623
101321.8142305479
101321.8944302194
101321.9338846082
101321.8776429827
101321.7142847058
101321.5703870401
101321.2832452107
101321.1994040888
101321.1704247658
101321.1911809857
101321.4315966771
101321.5243300053
101321.6465248286
101321.6682224885
101321.5970594064
101321.467817135
101321.3250629681
101321.187374057
101321.0640406088
101321.0722317152
101320.9376494764
101320.8670600469
101320.660183102
101320.4650461207
101320.3083396707
101320.0923776833
101320.0876905203
101320.0877576587
101320.2813455406
101320.2904549945
101320.4583072124
101320.4395401326
101320.2187104282
101319.9906664469
101319.7317246296
101319.4430908871
101319.204954429
101319.2086387846
101319.1554965884
101319.304166378
101319.3123265872
101319.3212428008
101319.2540300745
101319.3058207042
101319.2536034739
101319.2850570413
101319.4032895085
101319.3695580723
101319.4195520131
101319.4218504305
101319.2588049835
101319.0150048702
101318.8860061045
101318.6781525603
101318.6223680025
101318.664795285
101318.7357016065
101318.8921678677
101318.9774405178
101319.0052840056
101318.9103342108
101318.7747958324
101318.6245506054
101318.3940944425
101318.2791891087
101318.2084500312
101318.1988648087
101318.1646748101
101318.1338532141
101317.9947582247
101317.7713816704
101317.4131335597
101317.3333475589
101317.1057553778
101317.0398725482
101317.1976717921
101317.2373112967
101317.3974097062
101317.4350810554
101317.2208916454
101317.0414772056
101316.7052278655
101316.4648389608
101316.2198510828
101316.2184351477
101316.1712488757
101316.2382557666
101316.2780120325
101316.1954350261
101316.1465311392
101316.0237611301
101316.063532067
101316.0674458335
101316.2677197551
101316.1765901917
101316.4113740173
101316.3009703294
101316.0939148859
101315.8732188328
101315.542949505
101315.3362262245
101315.2405062734
101315.2647604295
101315.4231354722
101315.4991185658
101315.6936126184
101315.6759380498
101315.5954770997
101315.4189837496
101315.258320685
101315.0791521335
101314.9682293504
101314.9385490672
101314.8197549364
101314.8230260173
101314.6412747029
101314.4088861433
101313.969732577
101313.8655384149
101313.5785476054
101313.5362359476
101313.5541188764
101313.6602003011
101313.7851048674
101313.8532732291
101313.836618262
101313.5188503633
101313.2850630812
101312.9822450896
101312.7285044178
101312.525368638
101312.5027815198
101312.5102130779
101312.5516063135
101312.5536113754
101312.4802676232
101312.3396176762
101312.3177420368
101312.2529045365
101312.2332268109
101312.3104012859
101312.2769056011
101312.3617361401
101312.3080449542
101312.0772988132
101311.8200417391
101311.6147158753
101311.4034256367
101311.3305838264
101311.2725972495
101311.2883989865
101311.4285785607
101311.4565896771
101311.3910724808
101311.2619323221
101311.1622126391
101310.9488619554
101310.8196974353
101310.6719792889
101310.5979303936
101310.4269113047
101310.343560087
101310.0685578621
101309.8797612928
101309.3893975709
101309.3827816269
101309.1852574326
101309.220383994
101309.2924888725
101309.2895764406
101309.369919921
101309.2338001364
101309.0085701574
101308.6193743139
101308.4527236717
101308.1011093381
101307.9811630125
101307.9100888196
101307.9205041004
101307.9763089791
101307.9448756847
101307.8805542141
101307.6904176445
101307.5967180439
101307.4603355248
101307.4360024549
101307.4299609306
101307.3737682646
101307.4695609121
101307.3039265815
101307.2260499346
101306.9447994841
101306.787906983
101306.541843072
101306.4756431751
101306.4590206576
101306.4235621948
101306.5078679697
101306.4184144165
101306.3943220115
101306.1749657285
101306.1026657177
101305.8512234957
101305.7490071508
101305.6665919332
101305.5622944477
101305.5941527279
101305.4075162062
101305.2622777992
101304.8937843212
101304.561891152
101304.129653389
101303.9745574338
101303.8054342309
101303.7085117204
101303.7935629053
101303.7424862584
101303.8851090215
101303.7541922642
101303.6136700839
101303.2654650103
101303.1185013406
101302.8166535672
101302.6230307643
101302.5142791027
101302.435623382
101302.3313525401
101302.274264366
101302.1212405352
101301.9846444556
101301.7645816073
101301.7182291067
101301.6943277994
101301.7471873194
101301.7765015752
101301.8806421184
101301.8263592871
101301.6888093933
101301.3744594505
101301.051835241
101300.7992591614
101300.4931389054
101300.3399073359
101300.3468449649
101300.3622248531
101300.3788712047
101300.3559114791
101300.2176459968
101300.1400860157
101299.8879863861
101299.7333646937
101299.5536283111
101299.3736257488
101299.2468272995
101299.0711255114
101298.8255472245
101298.5090846098
101298.1863304389
101297.9311436628
101297.689062006
101297.6458052353
101297.64241886
101297.6554058846
101297.6561620631
101297.6469510581
101297.4180909366
101297.1124543877
101296.7445934704
101296.4755833963
101296.1513426882
101295.9511241801
101295.931911791
101295.7596021982
101295.8142136678
101295.6490060593
101295.4841341428
101295.3965376765
101295.2076364341
101295.140998801
101295.0651659624
101295.1166440356
101295.0401107833
101295.0982427463
101294.8780916096
101294.6569918871
101294.4232051171
101294.1526760561
101293.9567554852
101293.7317103225
101293.6229668765
101293.5747783772
101293.505691548
101293.4460357528
101293.3681979903
101293.3112416073
101293.2077727567
101293.0122055528
101292.739230031
101292.4586044123
101291.9439607118
)
;

boundaryField
{
    inlet
    {
        type            calculated;
        value           uniform 101325.0000013018;
    }
    outlet
    {
        type            calculated;
        value           uniform 101292.0125421673;
    }
    frontAndBack
    {
        type            empty;
    }
}


// ************************************************************************* //
