/*--------------------------------*- C++ -*----------------------------------*\
| =========                 |                                                 |
| \\      /  F ield         | OpenFOAM: The Open Source CFD Toolbox           |
|  \\    /   O peration     | Version:  v2012                                 |
|   \\  /    A nd           | Website:  www.openfoam.com                      |
|    \\/     M anipulation  |                                                 |
\*---------------------------------------------------------------------------*/
FoamFile
{
    version     2.0;
    format      ascii;
    class       volScalarField;
    location    "0.0115";
    object      p;
}
// * * * * * * * * * * * * * * * * * * * * * * * * * * * * * * * * * * * * * //

dimensions      [1 -1 -2 0 0 0 0];


internalField   nonuniform List<scalar> 
1000
(
101339.0621527152
101336.4576939621
101343.1488813481
101348.392553361
101354.2083086572
101359.4800827569
101364.0637034014
101367.9772493109
101371.2483221716
101373.4137085494
101374.0645280261
101374.0444495087
101373.6797415401
101372.6626407976
101370.6992459031
101367.7124316266
101363.8060291482
101359.1575386117
101353.9173477694
101348.1858330763
101342.042170868
101335.5754820119
101328.8958470528
101322.1298799563
101315.4124927616
101308.8791544255
101302.6521529718
101296.8125503848
101291.3720524448
101286.3091497702
101281.7693665595
101278.4015846317
101276.9713379979
101276.8160796021
101276.8743829609
101277.1545779068
101277.9103921412
101279.3913214646
101281.7981797426
101285.2184683061
101289.6036021137
101294.7958920465
101300.5916303871
101306.8020330078
101313.2813125838
101319.9194845194
101326.6196044948
101333.2809535022
101339.7999450925
101346.0906173705
101352.1128279903
101357.8712481821
101363.3190484101
101368.1008301226
101371.3383042687
101372.4856936706
101372.5737844372
101372.5310037965
101372.2877476924
101371.6666437587
101370.4476876338
101368.4343067369
101365.4848876797
101361.5495528586
101356.6839945552
101351.0363642217
101344.8097123412
101338.2150745355
101331.4357811183
101324.6151233536
101317.8609812264
101311.2495861353
101304.82030558
101298.5765796907
101292.5262483854
101286.8090931196
101281.9484102704
101278.9103511285
101277.9717638255
101277.9127624273
101277.9725479122
101278.1926745732
101278.7611204956
101279.8559091471
101281.6601747435
101284.3201623526
101287.9184305023
101292.4519947048
101297.8284681108
101303.8824266792
101310.4065365143
101317.1882982319
101324.0435692106
101330.8389506518
101337.4984759385
101343.9969787684
101350.3428285163
101356.5315805074
101362.4136326776
101367.4351412794
101370.5939149175
101371.5892354879
101371.6546825235
101371.6236111544
101371.4327941121
101370.9553601466
101370.0159932094
101368.4468050932
101366.0968526636
101362.8584417555
101358.6880783909
101353.6213948938
101347.7744865172
101341.3272045273
101334.4919113207
101327.477618061
101320.45779955
101313.5461660251
101306.7876091038
101300.1793752341
101293.7440721232
101287.6884174215
101282.6537844625
101279.6499053499
101278.7789411539
101278.7264795875
101278.7746263437
101278.9497293999
101279.4049153466
101280.2853100992
101281.7487320173
101283.9369389339
101286.9582924063
101290.8680814488
101295.6549610977
101301.2364747617
101307.4656671601
101314.1509346048
101321.0884344278
101328.0985745862
101335.0533402247
101341.8856064939
101348.5754256335
101355.0947972452
101361.263152191
101366.4915726918
101369.7725148273
101370.8321782144
101370.9157006617
101370.8945073705
101370.7474533702
101370.3719420344
101369.6190338118
101368.3423418612
101366.3997918505
101363.6726176595
101360.0816503076
101355.6034994686
101350.281241278
101344.2242010195
101337.5950725465
101330.5866028553
101323.3906814516
101316.1647658356
101309.0089547643
101301.9757884293
101295.1385723138
101288.7515332418
101283.4952886317
101280.3796561523
101279.464874067
101279.4038358004
101279.4405011622
101279.5792017837
101279.9492733386
101280.6747053294
101281.8944160165
101283.7404003752
101286.3254880161
101289.7278246581
101293.9778441769
101299.0491617098
101304.8555482634
101311.2579645923
101318.0842409667
101325.1574319908
101332.3236794506
101339.4709022437
101346.5279990423
101353.419721062
101359.9293210953
101365.4509387132
101368.9698782653
101370.1680455158
101370.2818545618
101370.268872027
101370.157186073
101369.8596413677
101369.2464768452
101368.1884084909
101366.5543819937
101364.2258610222
101361.1091548304
101357.1495244743
101352.3431492988
101346.7427150613
101340.4546336355
101333.6277760648
101326.4328657587
101319.0340340992
101311.563952254
101304.1252409547
101296.8480196517
101290.0427769957
101284.4416151241
101281.092756063
101280.0728616188
101279.9934008887
101280.0211323717
101280.1302705488
101280.4326423712
101281.0367642645
101282.0670487598
101283.6455966532
101285.8832172292
101288.867331064
101292.6511552312
101297.2442467025
101302.6059780823
101308.6459277339
101315.2343611703
101322.2208478223
101329.4555877339
101336.808114016
101344.172919935
101351.4338948517
101358.3375968564
101364.2542450892
101368.1345730554
101369.555726887
101369.721360481
101369.7151221071
101369.6301653136
101369.3943431826
101368.891885634
101368.0070591085
101366.6188012662
101364.6125147333
101361.8894028012
101358.3779457805
101354.0446474965
101348.9012171745
101343.0067594165
101336.4641428384
101329.4082135278
101321.9854846157
101314.3340868589
101306.5837711332
101298.9051599014
101291.6513077631
101285.5955024973
101281.8579032342
101280.635393848
101280.5200678027
101280.5400883625
101280.6241992589
101280.8714411541
101281.3779757739
101282.2559407235
101283.6177085524
101285.569663386
101288.2026451438
101291.5829267526
101295.7433016409
101300.6756913384
101306.3286253561
101312.6120912842
101319.4086263492
101326.5878509773
101334.0216221583
101341.5904187927
101349.1539963485
101356.4385044432
101362.8103280455
101367.1850483202
101368.9546554279
101369.2121800984
101369.2122717193
101369.1497351475
101368.9638251422
101368.5512138452
101367.8074290463
101366.6207493605
101364.8818432951
101362.4909649948
101359.3674506157
101355.4589100376
101350.7482690445
101345.2580677649
101339.0511922333
101332.2251692389
101324.8989455085
101317.1991195273
101309.2616209385
101301.2742126527
101293.6037986387
101287.0311319581
101282.751667275
101281.1929613082
101281.0063153115
101281.0191211503
101281.0803060112
101281.2790860889
101281.7016440305
101282.4511642839
101283.6316542072
101285.344217334
101287.6794974716
101290.7104530529
101294.4845514696
101299.0166528414
101304.2852689846
101310.2339027152
101316.7767768094
101323.8079151297
101331.2123695196
101338.8715150545
101346.6386400037
101354.2418302105
101361.0749300699
101366.0461853502
101368.3124928386
101368.7327321927
101368.7418958332
101368.6993452134
101368.556602791
101368.2208080799
101367.5965338259
101366.5798311444
101365.0669499345
101362.9597260601
101360.1732436524
101356.6433373712
101352.3329356954
101347.2372185607
101341.3866863404
101334.845242788
101327.7024172773
101320.065429509
101312.0628757013
101303.8805295896
101295.8709866179
101288.7808606677
101283.8440250288
101281.7888895269
101281.4686700349
101281.4762347142
101281.520928574
101281.6792239146
101282.0275881141
101282.6617305785
101283.6790670813
101285.1770641957
101287.2468744065
101289.9670844436
101293.396487876
101297.5671119737
101302.4796009237
101308.1021876874
101314.3730642402
101321.2063150062
101328.500547083
101336.1431054554
101343.9938561247
101351.7991767654
101359.0142355657
101364.5924219344
101367.4615059039
101368.1718436829
101368.2069207011
101368.2126716553
101368.1377740416
101367.9137439411
101367.4439520776
101366.6210751008
101365.3354039321
101363.4841662871
101360.9785412068
101357.7497623358
101353.754128766
101348.9761866897
101343.4300561972
101337.1593044811
101330.2338083971
101322.745195972
101314.8052848976
101306.5728427258
101298.3682309384
101290.8685937555
101285.2707624725
101282.4695584214
101281.8330276827
101281.7046076897
101281.6303636
101281.6570740222
101281.842546448
101282.2921799493
101283.1112822435
101284.4045780168
101286.27146097
101288.7941155372
101292.0303339057
101296.0111171145
101300.7398146569
101306.1921711209
101312.3182212448
101319.0472111839
101326.2934743822
101333.9558087606
101341.902836624
101349.9168407045
101357.4870164221
101363.6080055629
101367.3238784644
101368.6509536957
101368.8304858951
101368.8867085774
101368.8500822654
101368.6718523497
101368.2685547321
101367.5545358059
101366.4251796167
101364.7666656396
101362.4772810447
101359.4798370677
101355.7232444605
101351.1815411039
101345.8546221767
101339.7685904211
101332.9731633214
101325.5411410299
101317.5794091355
101309.2510325519
101300.8339842306
101292.9309704004
101286.6613127703
101283.024426618
101281.7993275068
101281.6262604366
101281.572702382
101281.6289682905
101281.8348224519
101282.2659919283
101283.002626235
101284.1429963972
101285.7919445158
101288.0429122871
101290.9676806915
101294.6130753684
101298.9994343723
101304.1198421004
101309.9415146163
101316.4104318173
101323.4559940136
101330.9849436735
101338.863420878
101346.8886729825
101354.6677615361
101361.3585744411
101365.8894327063
101367.8991664658
101368.2813977872
101368.3326916896
101368.3135961882
101368.1713630089
101367.8263902622
101367.2067137294
101366.2243057612
101364.7758976596
101362.7587863825
101360.0838836161
101356.6817264281
101352.5059690769
101347.5365691043
101341.7816471306
101335.2763482545
101328.0817751754
101320.2948018672
101312.0678279239
101303.6420086857
101295.4840971679
101288.5610016595
101284.057429794
101282.1976389327
101281.8638311928
101281.8208373826
101281.8633579507
101282.0409804134
101282.4248555492
101283.0840110243
101284.1038654307
101285.5799930521
101287.603214456
101290.2505987919
101293.5817185564
101297.6350885505
101302.424054582
101307.9345179236
101314.1265453901
101320.9384076333
101328.2842620781
101336.0411977327
101344.0292494494
101351.9402066332
101359.1011567214
101364.4071491434
101367.1747381251
101367.9137180707
101367.9569132116
101367.9574158398
101367.8453937887
101367.5555377841
101367.0207179468
101366.1627222636
101364.8860136292
101363.0911970295
101360.68773602
101357.5992388029
101353.7661031843
101349.149935608
101343.7387909922
101337.550125294
101330.6312749804
101323.0650474508
101314.9862123733
101306.606176086
101298.2961051778
101290.8399272136
101285.4782564808
101282.8647638359
101282.2132122599
101282.1707804147
101282.195257093
101282.3432548922
101282.6765095496
101283.2578820638
101284.163931086
101285.4846964678
101287.308480083
101289.7124490912
101292.7605621988
101296.5016314688
101300.9645540824
101306.1532816926
101312.0445599956
101318.5895763928
101325.7145260145
101333.309935251
101341.2132994428
101349.1730151037
101356.6785437764
101362.7079055209
101366.2883214717
101367.5361295879
101367.6728959078
101367.6652537255
101367.5748764901
101367.3343757553
101366.875264151
101366.1275027998
101365.0018710133
101363.4020310952
101361.2375720951
101358.4292009901
101354.910381586
101350.6311122515
101345.5636975047
101339.7081010135
101333.0947529003
101325.7883790181
101317.9031471722
101309.6239429788
101301.252349555
101293.3996073593
101287.2380080202
101283.7889034424
101282.6645938436
101282.5535612177
101282.5769468883
101282.6951919983
101282.9796383647
101283.4867674402
101284.2860093628
101285.4630938624
101287.1047066308
101289.2879438453
101292.0787201808
101295.5313081632
101299.6844686162
101304.5558660963
101310.1377925392
101316.3963835794
101323.2718125344
101330.6697141798
101338.446911889
101346.3919009733
101354.11402691
101360.7549972537
101365.1692032228
101367.0892219046
101367.4306607938
101367.4059535073
101367.3387048419
101367.1369474511
101366.7425099634
101366.0913608565
101365.101536229
101363.6790367277
101361.7327989627
101359.181246229
101355.9535837157
101351.9924582932
101347.2591266636
101341.7392382266
101335.4470286218
101328.4290214697
101320.7765902263
101312.6469283617
101304.2922937044
101296.1923572197
101289.3432533841
101284.9929921268
101283.2464878829
101282.9518391954
101282.9793276659
101283.0689763523
101283.3122463963
101283.7553179023
101284.4605832669
101285.507702588
101286.9826234376
101288.9636804648
101291.5183491336
101294.7039110677
101298.5652462888
101303.1298985167
101308.4031514965
101314.3651504017
101320.9701794902
101328.1418719773
101335.7585094594
101343.6348083609
101351.4592162541
101358.5706347632
101363.8070114034
101366.4774937197
101367.1622325796
101367.1877677989
101367.1226074651
101366.9482958611
101366.6093261163
101366.0425584602
101365.1736532062
101363.9121597208
101362.1668324238
101359.8544933431
101356.9010158021
101353.2430174554
101348.8329453739
101343.6448190194
101337.6791466481
101330.9668726369
101323.5779374778
101315.6422385195
101307.3755316703
101299.1546312487
101291.7628259887
101286.4993178821
101284.0048369512
101283.3928785404
101283.3825030835
101283.456907761
101283.6631236181
101284.0510283235
101284.6744758367
101285.606336664
101286.9308857097
101288.7271491713
101291.0636689738
101293.9997949512
101297.5848478299
101301.8538679202
101306.8225324166
101312.4831811112
101318.8034942016
101325.7238274862
101333.1425639983
101340.8973505773
101348.7371399067
101356.1660427675
101362.152066167
101365.6490372704
101366.8755814911
101367.0061703299
101366.9360143262
101366.7925488579
101366.4953403074
101365.9945370264
101365.2261937551
101364.1050198624
101362.5403071314
101360.4472113877
101357.7485467389
101354.3761539275
101350.2755600786
101345.4115270949
101339.7730011165
101333.3768775736
101326.273550871
101318.5661748533
101310.4377900518
101302.1919377445
101294.4348843312
101288.3472207965
101285.0014844201
101283.9046201707
101283.7923406193
101283.8687317282
101284.0317828324
101284.3718328997
101284.9250804998
101285.7549009337
101286.9423401154
101288.5677896046
101290.7016936273
101293.405270345
101296.7307681353
101300.718133162
101305.390628452
101310.7511165827
101316.7796444331
101323.4309340648
101330.624033198
101338.223897755
101346.0191425305
101353.6227382479
101360.2121797257
101364.5858830787
101366.479089507
101366.8214038307
101366.7852035978
101366.6569312347
101366.3948134999
101365.9513230963
101365.2682803134
101364.2698400423
101362.8670009701
101360.9738382641
101358.5117339921
101355.4090463397
101351.6049599635
101347.0560360261
101341.7413360364
101335.6658546863
101328.8646016885
101321.4162176524
101313.4705077659
101305.2802008395
101297.3150621907
101290.5398775448
101286.2443686956
101284.536668124
101284.2261805687
101284.2701294467
101284.4079264038
101284.7053806733
101285.1988813595
101285.9420458974
101287.0084213051
101288.477613382
101290.4224465028
101292.907328467
101295.9880719481
101299.7088964079
101304.098679174
101309.1677636093
101314.9053452782
101321.2780649094
101328.2242567856
101335.6337963564
101343.3241395241
101350.9911146299
101358.0130582798
101363.2429234562
101365.8907869679
101366.6321593846
101366.6624369829
101366.5440472686
101366.3160448587
101365.9144650389
101365.2980331361
101364.40185504
101363.1423435035
101361.4339321765
101359.1949807716
101356.3489484945
101352.8289845918
101348.5847308312
101343.5872037943
101337.8319205909
101331.3417515683
101324.1744793133
101316.4480827771
101308.3751207053
101300.3240496674
101293.0418202313
101287.8106078843
101285.3504298172
101284.6932432971
101284.6636125102
101284.7850887542
101285.0375448836
101285.4838552694
101286.1567590408
101287.1200758487
101288.4499971966
101290.2198495815
101292.4973258442
101295.3438711138
101298.8099572966
101302.9297897365
101307.7186645734
101313.1718055056
101319.2638530338
101325.946189226
101333.1318796576
101340.6719337492
101348.3241511055
101355.6123890851
101361.568907762
101365.0900222041
101366.3760337475
101366.5501786755
101366.4683406418
101366.271405633
101365.9060498444
101365.3402289099
101364.5229700149
101363.3818667749
101361.8347162916
101359.799791319
101357.1972320975
101353.952259522
101350.0036157026
101345.3124731645
101339.8671624427
101333.6836655014
101326.8073845059
101319.3312301633
101311.428527081
101303.3923761082
101295.7963755338
101289.7544290653
101286.3851015632
101285.2542298345
101285.083811172
101285.1607358737
101285.3710434649
101285.7733605043
101286.3916990484
101287.2764663265
101288.492399316
101290.1071419337
101292.1884521093
101294.8041086953
101298.0153943813
101301.8675190536
101306.3837972662
101311.5644290166
101317.3871647177
101323.8087729095
101330.758383988
101338.1138817275
101345.6740873867
101353.0785283654
101359.5793922914
101364.0182797909
101365.9564793401
101366.4154844854
101366.4190065368
101366.2597934817
101365.9393766885
101365.4105121624
101364.6447214346
101363.5873094816
101362.1699755867
101360.3171167635
101357.9462361006
101354.972903246
101351.3221264332
101346.9402940713
101341.8029106469
101335.9183560113
101329.3277698953
101322.1094505639
101314.4064155229
101306.4626351876
101298.7174567059
101292.0574998258
101287.7196410869
101285.9669684533
101285.5726160354
101285.5384943212
101285.6960305309
101286.037500136
101286.6078883713
101287.437350555
101288.5745419128
101290.0732013157
101291.9901262522
101294.390380286
101297.3447532277
101300.9169850983
101305.1496644612
101310.0564464122
101315.6205408604
101321.7977564897
101328.5198541373
101335.6802772713
101343.1082009761
101350.5261475709
101357.3642767066
101362.5784065612
101365.3375929545
101366.1925063972
101366.3204006195
101366.2570537747
101366.0130101816
101365.5455623019
101364.8247197424
101363.8137251501
101362.4696518719
101360.742112386
101358.5659556458
101355.8567299875
101352.5200484149
101348.4725145585
101343.6626151164
101338.0817869105
101331.7660643857
101324.7920466407
101317.2884596804
101309.4669914544
101301.673972833
101294.6014484934
101289.4309947495
101286.8706655325
101286.1355891617
101286.0177244598
101286.0612888859
101286.296653415
101286.7725999834
101287.5327146831
101288.6173654231
101290.0590436021
101291.8839117481
101294.1260823138
101296.8426854869
101300.1127543675
101304.0173642752
101308.6119556726
101313.9056671942
101319.855149885
101326.3770863543
101333.3592988689
101340.6461869364
101348.0153930833
101355.048754886
101360.8672328785
101364.4798112532
101365.8681578309
101366.1255915598
101366.1528132148
101366.0255266097
101365.69930202
101365.1066846005
101364.1863063185
101362.8865455462
101361.1793406607
101359.0535403056
101356.4902623029
101353.4406080167
101349.8152303962
101345.4851552315
101340.31300944
101334.2348794101
101327.3785790716
101319.9603873713
101312.5047845446
101303.9222089129
)
;

boundaryField
{
    inlet
    {
        type            uniformFixedValue;
        uniformValue    sine;
        uniformValueCoeffs
        {
            frequency       constant 3000;
            scale           constant 50;
            level           constant 101325;
        }
        value           uniform 101326.3578702043;
    }
    outlet
    {
        type            pressureOutletNSCBC;
        pInf            101325;
        gamma           1.4;
        etaAc           1;
        fieldInf        1;
        lInf            2.25;
        value           uniform 101300.1439488596;
    }
    frontAndBack
    {
        type            empty;
    }
}


// ************************************************************************* //
