/*--------------------------------*- C++ -*----------------------------------*\
| =========                 |                                                 |
| \\      /  F ield         | OpenFOAM: The Open Source CFD Toolbox           |
|  \\    /   O peration     | Version:  v2012                                 |
|   \\  /    A nd           | Website:  www.openfoam.com                      |
|    \\/     M anipulation  |                                                 |
\*---------------------------------------------------------------------------*/
FoamFile
{
    version     2.0;
    format      ascii;
    class       volScalarField;
    location    "0.0115";
    object      pMean;
}
// * * * * * * * * * * * * * * * * * * * * * * * * * * * * * * * * * * * * * //

dimensions      [1 -1 -2 0 0 0 0];


internalField   nonuniform List<scalar> 
1000
(
101325.4643636951
101325.4550001272
101325.4446853042
101325.4362263476
101325.4192891152
101325.4000773716
101325.375628823
101325.3507755697
101325.3227860276
101325.2936576325
101325.2633222125
101325.2326142174
101325.2020564581
101325.1718337583
101325.1425534982
101325.114734519
101325.0890334712
101325.0659418974
101325.0458792231
101325.0292481998
101325.0162685449
101325.0072476438
101325.0022946814
101325.0015745175
101325.0050510532
101325.0127084276
101325.0243575446
101325.039825876
101325.0588255162
101325.0811554471
101325.1065443236
101325.1345653704
101325.1642181152
101325.1943723272
101325.2245191044
101325.2545815042
101325.2843237844
101325.3134294332
101325.3413477975
101325.3675210202
101325.3912896959
101325.4121329045
101325.4295595881
101325.4432806238
101325.4530308588
101325.4587046597
101325.4601904946
101325.4575077918
101325.4506754
101325.4398417339
101325.4251253073
101325.4067225102
101325.3847589905
101325.3595281061
101325.3316105971
101325.3022207801
101325.2724393503
101325.2426830202
101325.2129980394
101325.1835718659
101325.1546809434
101325.1267604288
101325.1003282977
101325.0760027894
101325.0543638769
101325.035975296
101325.0212523632
101325.0105246895
101325.0039586645
101325.0016511987
101325.0035825395
101325.0097123729
101325.0199264777
101325.0341288207
101325.0521849408
101325.0739734773
101325.099172593
101325.1270286158
101325.15621728
101325.1856966389
101325.2151515802
101325.244548532
101325.2736861776
101325.3023663546
101325.3301462989
101325.3566132855
101325.3811430033
101325.4032187272
101325.4222084366
101325.437698233
101325.4492462036
101325.4566854976
101325.4598292786
101325.4587363545
101325.453391316
101325.4439596205
101325.4304644256
101325.4130660639
101325.3918092017
101325.3670759218
101325.3395754349
101325.3107093255
101325.2814911596
101325.2523146207
101325.2231767621
101325.1942533162
101325.1657297943
101325.1379683091
101325.1113723835
101325.0864859615
101325.0638459879
101325.0440578818
101325.0276185217
101325.0150064834
101325.006506043
101325.0023458189
101325.0025502293
101325.0071393353
101325.0159925648
101325.029060606
101325.0462090254
101325.0673337125
101325.0920349409
101325.1194491806
101325.1481469043
101325.1771206704
101325.2060652402
101325.2349772634
101325.2636653413
101325.2920034817
101325.3195966918
101325.3461358389
101325.3710484378
101325.3938920645
101325.4140204472
101325.430995899
101325.4442712107
101325.4535765005
101325.4585944235
101325.4592958442
101325.455586273
101325.4476006949
101325.4353347984
101325.4189596522
101325.398523169
101325.3744588711
101325.3475108767
101325.3191462292
101325.290391969
101325.2616804085
101325.2329811839
101325.2044628074
101325.1762493998
101325.1486663051
101325.1220245132
101325.096822388
101325.073519163
101325.0527124887
101325.034894881
101325.020618147
101325.010248841
101325.0041491826
101325.0024506371
101325.0052901746
101325.0126025099
101325.0243939525
101325.0405147862
101325.060859022
101325.0849464793
101325.111870314
101325.1401152471
101325.1686692643
101325.1971887202
101325.2256966857
101325.2540115189
101325.2820506068
101325.3094626857
101325.3359992809
101325.3611466124
101325.3845156293
101325.4054936416
101325.4236505786
101325.4384002052
101325.4494134406
101325.4562655197
101325.4588326428
101325.4569037789
101325.4505482216
101325.4396938717
101325.424507099
101325.4050296508
101325.381728399
101325.3553690318
101325.3274662724
101325.2991144901
101325.2707987855
101325.2424774853
101325.2143112877
101325.1863788375
101325.1589758795
101325.1323480453
101325.1069493523
101325.0831750585
101325.0615956039
101325.0426744523
101325.02699471
101325.0149585318
101325.0070274696
101325.0034234414
101325.0044072327
101325.0100022407
101325.0203017109
101325.0351877451
101325.0545738227
101325.0779411414
101325.104337906
101325.1321651804
101325.1603478664
101325.1885003546
101325.2166531828
101325.2446416491
101325.2724094861
101325.2996448537
101325.3261418935
101325.351437212
101325.3751905313
101325.3968254999
101325.4159359973
101325.4319280446
101325.4444435014
101325.4529897208
101325.4573634847
101325.4572534068
101325.4526400698
101325.4433716904
101325.4295637954
101325.4112292183
101325.3888256563
101325.3631221443
101325.3356773247
101325.3076906692
101325.2797247852
101325.2517419289
101325.2238904301
101325.1962187129
101325.1689950734
101325.1424155851
101325.1168980332
101325.0927794098
101325.0706006268
101325.0507881378
101325.0339294854
101325.0204404548
101325.0108415465
101325.0054262042
101325.0045566855
101325.0083506914
101325.0169989673
101325.0304481882
101325.0486640007
101325.0711388162
101325.0969190425
101325.1243260579
101325.1521736634
101325.1799965398
101325.207833982
101325.2355252346
101325.2630469224
101325.2901048285
101325.316542801
101325.3419267209
101325.3659691298
101325.3881219733
101325.4080139565
101325.4250548526
101325.4388786968
101325.4489536019
101325.4550179291
101325.4566827786
101325.453842918
101325.446266325
101325.4339973138
101325.4169959772
101325.3956682507
101325.3707442995
101325.3437921495
101325.3161503149
101325.2885004936
101325.2608258509
101325.2332628143
101325.205837183
101325.1787912357
101325.1522854116
101325.1266989715
101325.1023277631
101325.0796744174
101325.0591359153
101325.0412826423
101325.0265364264
101325.0154431187
101325.0083518054
101325.0056948656
101325.0076802083
101325.0145826822
101325.0264363888
101325.0432723119
101325.0646549243
101325.0896742958
101325.1166241992
101325.1441478872
101325.1716728099
101325.1992139271
101325.2266363994
101325.2539217345
101325.2808141078
101325.3071731242
101325.3326136223
101325.3568699358
101325.3794433153
101325.399977121
101325.4179115148
101325.4328694762
101325.444311526
101325.4519275505
101325.4552793576
101325.4541854639
101325.4483446104
101325.4377259501
101325.4222218645
101325.4021600175
101325.3781751212
101325.3517977154
101325.3245019317
101325.2971497156
101325.2697623267
101325.2424725498
101325.2152805397
101325.1884133508
101325.1619946707
101325.1363789225
101325.1118179163
101325.0887882535
101325.0676473621
101325.0489543166
101325.0331145714
101325.020695832
101325.0120700933
101325.0077314256
101325.0079456576
101325.0130740735
101325.0232201288
101325.0385070611
101325.0585889711
101325.082674707
101325.1090780899
101325.136278789
101325.1635192261
101325.190787302
101325.2179537468
101325.2450201813
101325.2717459366
101325.2980185057
101325.3234775533
101325.3478902933
101325.3707906121
101325.3918501218
101325.4105342578
101325.4264774238
101325.4391406451
101325.4481863785
101325.4531434367
101325.4537636506
101325.4496871592
101325.4407930382
101325.4269136984
101325.4082816613
101325.385382605
101325.359655004
101325.3327015399
101325.3055545347
101325.2783969414
101325.2513323149
101325.2243826135
101325.1977216728
101325.1714693423
101325.1459452936
101325.1213361335
101325.0981000659
101325.0765496966
101325.0572033848
101325.0403983296
101325.0267827073
101325.0167225763
101325.0107384892
101325.0091644333
101325.0124734146
101325.0208261585
101325.0343770809
101325.0529560621
101325.0758909686
101325.1015546167
101325.1284081027
101325.1553015629
101325.1821721775
101325.208868861
101325.2354558687
101325.2616792869
101325.2874417436
101325.3124687464
101325.3366029451
101325.3593823351
101325.3805630776
101325.3997406611
101325.4163819957
101325.4301101883
101325.440512814
101325.4471488316
101325.4495945997
101325.4475455073
101325.4407735934
101325.4290383438
101325.412403775
101325.3914349543
101325.3672350868
101325.3413195439
101325.3150380707
101325.2887046043
101325.2624937783
101325.2362904689
101325.2105078483
101325.1850511703
101325.1602004168
101325.1361722059
101325.1133160383
101325.0918944924
101325.0724595974
101325.055281585
101325.0409462795
101325.0299186593
101325.0226313329
101325.0195736754
101325.0211501721
101325.0276352328
101325.0393071888
101325.0559709445
101325.0772647167
101325.1017611485
101325.1278514951
101325.154340252
101325.1808006294
101325.2071447873
101325.2333321229
101325.2592732663
101325.2847696338
101325.3096130519
101325.3336372652
101325.3565109634
101325.3778767445
101325.3973852152
101325.4146558757
101325.4291207518
101325.4405234883
101325.4482495914
101325.4521305329
101325.4515009844
101325.446289052
101325.4361822349
101325.4211522805
101325.4015169655
101325.3783398189
101325.3528639587
101325.3267043355
101325.30044639
101325.2742731154
101325.2481038463
101325.2222638258
101325.1967766536
101325.1718404209
101325.1476197179
101325.1245261484
101325.1027158405
101325.0826584356
101325.0647789483
101325.0494727779
101325.0372708532
101325.028636773
101325.024042204
101325.0238717999
101325.0285581926
101325.0383328978
101325.0531953721
101325.0728239353
101325.0962125084
101325.1216762448
101325.1478374073
101325.1740786788
101325.200196761
101325.2261846875
101325.2519364421
101325.2773620481
101325.3021640643
101325.3262069512
101325.3492074489
101325.3708602578
101325.3907290907
101325.4086311588
101325.423904205
101325.4362709062
101325.4452177851
101325.4504248432
101325.4513489968
101325.4477999283
101325.4394270209
101325.4262153321
101325.408141568
101325.3861870958
101325.3615406204
101325.3356895224
101325.3096425602
101325.2836504819
101325.2576607344
101325.2318585898
101325.206465804
101325.1815261941
101325.1572496221
101325.133953979
101325.1119417333
101325.0914285882
101325.0729780976
101325.0569202075
101325.0437022412
101325.0339188081
101325.0278813392
101325.0262112992
101325.0291542858
101325.0371280574
101325.050188411
101325.0681874514
101325.0902717712
101325.1151077615
101325.1408559855
101325.1669096929
101325.1928861826
101325.2187243404
101325.2443440534
101325.2697350257
101325.2945462127
101325.3186727111
101325.3417968566
101325.3637764871
101325.3840298881
101325.4024517792
101325.4185050761
101325.4317769876
101325.4418621678
101325.448346144
101325.4508362776
101325.4488751371
101325.4422658909
101325.4308437601
101325.4145707764
101325.3939381429
101325.3703322169
101325.3449156634
101325.3191528055
101325.2934027082
101325.2676594181
101325.241931452
101325.2166347865
101325.1917643832
101325.1674660084
101325.1440377001
101325.1217987667
101325.1010228969
101325.0819827301
101325.0653626577
101325.0512810808
101325.0404210067
101325.0331734322
101325.0300234054
101325.0313375509
101325.0375865579
101325.0488511832
101325.06519994
101325.0858672787
101325.1098424351
101325.135211275
101325.1610158839
101325.1868412018
101325.212597575
101325.2380270142
101325.263379951
101325.2882439842
101325.3124508469
101325.3357474027
101325.3579438992
101325.3787018992
101325.3974833075
101325.4143374531
101325.4284515816
101325.4395430585
101325.4472955817
101325.4511405174
101325.4508241579
101325.445901746
101325.4362797694
101325.4218177374
101325.4027845497
101325.3801924206
101325.3556214996
101325.3300211802
101325.3046053385
101325.2791105904
101325.2535977639
101325.2283926494
101325.2036301559
101325.1793229114
101325.1558362075
101325.1333523437
101325.1124041379
101325.0928483001
101325.0757397698
101325.0609093248
101325.0490893064
101325.0407080893
101325.0362391371
101325.0360585887
101325.0406087086
101325.050129738
101325.0647276041
101325.0839926662
101325.1068090546
101325.1318306387
101325.1572358993
101325.1829697592
101325.2085788715
101325.2339496471
101325.2591921103
101325.2840923924
101325.3083795665
101325.3318637612
101325.3542888411
101325.375441391
101325.3947358673
101325.4121756938
101325.4271366004
101325.4392028648
101325.4480476572
101325.4532986479
101325.4544554574
101325.4511823443
101325.4433369609
101325.4306618453
101325.4133892149
101325.3919897658
101325.3682810353
101325.343206972
101325.3179456007
101325.2927699145
101325.2676221488
101325.2424169097
101325.2178080832
101325.1935860504
101325.1700636283
101325.1474456002
101325.1261870805
101325.1064405289
101325.0886196371
101325.0732591911
101325.0605852145
101325.0511279813
101325.0455194539
101325.0438151269
101325.0468284158
101325.0546434405
101325.0674980423
101325.0851998475
101325.1068693358
101325.1311303301
101325.1564259719
101325.1817632513
101325.2073675325
101325.2327360188
101325.2577210113
101325.2827088171
101325.3071168405
101325.3307392772
101325.353429852
101325.374852521
101325.3948178361
101325.412582733
101325.4284193213
101325.441428727
101325.4513295366
101325.4578439481
101325.4603895714
101325.4587903505
101325.452602826
101325.4417564585
101325.4262204461
101325.4063805504
101325.3834978945
101325.359104965
101325.3341095121
101325.3092313302
101325.2843669621
101325.2593428052
101325.234897426
101325.210755124
101325.1871963196
101325.1645054255
101325.1429550517
101325.1230209459
101325.1045833619
101325.0887330654
101325.0753465459
101325.0649253046
101325.0581003408
101325.0552262808
101325.0566779963
101325.0628224173
101325.0739980919
101325.0900257128
101325.1104747184
101325.1337854461
101325.1587905515
101325.1840072325
101325.2092756044
101325.2346411573
101325.2596230389
101325.2844694601
101325.3089812201
101325.3327535825
101325.3556835602
101325.3774111095
101325.3978368533
101325.4161871533
101325.4327569985
101325.4466030545
101325.457512035
101325.4651367246
101325.4692309599
101325.4690023942
101325.4645174531
101325.4554409572
101325.4416831179
101325.4235010629
101325.4016991324
101325.3779860012
101325.3535206136
101325.328744711
101325.3042888718
101325.279651208
101325.2550740141
101325.2311679714
101325.2076666223
101325.1849163622
101325.16318842
101325.1429297436
101325.124234382
101325.1077356759
101325.0936314265
101325.0824284452
101325.0744911074
101325.0705384904
101325.0703764395
101325.0751021292
101325.0845452121
101325.0989428575
101325.1179243452
101325.1403820515
101325.1647318104
101325.1898536058
101325.2149314465
101325.2401449717
101325.2652379612
101325.2897611597
101325.3144915961
101325.3383876807
101325.3615105779
101325.3835621382
101325.4043197708
101325.4234317416
101325.4403303957
101325.455088416
101325.4671003014
101325.4757869408
101325.4811471736
101325.4823884903
101325.4795625707
101325.4721054203
101325.4601800419
101325.4436474835
101325.4233008868
101325.4002551929
101325.3762993951
101325.3520095878
101325.3276117458
101325.3035163021
101325.2789876833
101325.2553085201
101325.23186916
101325.2090679384
101325.1872469833
101325.1666539172
101325.1477966784
101325.1305188673
101325.1159793993
101325.1040664274
101325.0950157529
101325.0898275056
101325.0886879534
101325.0917014422
101325.0995432787
101325.1123016975
101325.1297310052
101325.151142442
101325.1748283609
101325.1996286648
101325.2247245852
101325.249552076
101325.2747996959
101325.2993289433
101325.3237737124
101325.3479486807
101325.3712544106
101325.3936178449
101325.4147165417
101325.4343922221
101325.4518697831
101325.4675243989
101325.4803238522
101325.4900967645
101325.4965892204
101325.4995373754
101325.4979268545
101325.4922837709
101325.482033996
101325.467292482
101325.44839825
101325.4264496616
101325.4028645319
101325.3790462062
101325.3550061676
101325.3310650194
101325.3072288421
101325.2830837005
101325.2600680598
101325.2372704894
101325.2153574575
101325.1945568252
101325.1753528403
101325.1577703839
101325.1425656838
101325.1297828067
101325.1201882437
101325.1136589285
101325.111420865
101325.1128897085
101325.1193434956
101325.1303424248
101325.1462712005
101325.1663539878
101325.1894996093
101325.2137256527
101325.2386673078
101325.2636056814
101325.2883065053
101325.3133854615
101325.3372575868
101325.3618115789
101325.3852931825
101325.4078589421
101325.429356263
101325.4494194507
101325.4677415597
101325.4836975602
101325.4975329852
101325.5085080263
101325.5159042049
101325.5201126624
101325.5204550305
101325.516172477
101325.5076443211
101325.494635814
101325.4773280703
101325.456620462
101325.4336941883
101325.4101834615
101325.3866416097
101325.3627978707
101325.339508738
101325.3157053909
101325.2923652962
101325.2698755567
101325.2478665106
101325.2269243636
101325.2073706379
101325.189580387
101325.1735327488
101325.1603944741
101325.1498799878
101325.1424651817
101325.1388108455
101325.1394614887
101325.1438805623
101325.1535314598
101325.16775854
101325.1864964886
101325.2086850425
101325.2327678885
101325.257168339
101325.2820630636
101325.306855029
101325.3314356429
101325.3562556196
101325.3795337038
101325.4037606401
101325.4266591188
101325.4484543095
101325.4690294357
101325.4879173778
101325.5045964496
101325.5192303003
101325.5309454584
101325.5399032126
101325.544846846
101325.5467178634
101325.5442152394
101325.5373814493
101325.5260456771
101325.5104207898
101325.4909704246
101325.4691093104
101325.4457990018
101325.4225384032
101325.3993448041
101325.3757648099
101325.3532402689
101325.3293200942
101325.3072614446
101325.2853158268
101325.2640350489
101325.244279237
101325.2260754949
101325.2097169695
101325.1955740844
101325.184512246
101325.1764662421
101325.1714720642
101325.1707008803
101325.1743082238
101325.1818855596
101325.1946948639
101325.2118816796
101325.2329607971
101325.2564691093
101325.280979789
101325.3054075948
101325.3301771725
101325.3548633673
101325.3791324484
101325.4038366643
101325.4261929753
101325.4500217214
101325.4723141791
101325.4932855437
101325.5129019956
101325.5302138113
101325.5454081947
101325.5582774349
101325.5680224258
101325.5746094849
101325.5772055531
101325.5766092536
101325.5711324837
101325.5618879023
101325.5478465734
101325.5299247043
101325.5089688246
101325.486447164
101325.4632904286
101325.4402348159
101325.4173828024
101325.3941327155
101325.3724559927
101325.3486587255
101325.3276820214
101325.3065985292
101325.2860512227
101325.2680401278
101325.2505075574
101325.236108868
101325.224150298
101325.2152370952
101325.2100047669
101325.2075160215
101325.2095997405
101325.2162325549
101325.2277718398
)
;

boundaryField
{
    inlet
    {
        type            calculated;
        value           uniform 101325.4612903152;
    }
    outlet
    {
        type            calculated;
        value           uniform 101325.2360772639;
    }
    frontAndBack
    {
        type            empty;
    }
}


// ************************************************************************* //
