/*--------------------------------*- C++ -*----------------------------------*\
| =========                 |                                                 |
| \\      /  F ield         | OpenFOAM: The Open Source CFD Toolbox           |
|  \\    /   O peration     | Version:  v2012                                 |
|   \\  /    A nd           | Website:  www.openfoam.com                      |
|    \\/     M anipulation  |                                                 |
\*---------------------------------------------------------------------------*/
FoamFile
{
    version     2.0;
    format      ascii;
    class       volScalarField;
    location    "0.0115";
    object      rho;
}
// * * * * * * * * * * * * * * * * * * * * * * * * * * * * * * * * * * * * * //

dimensions      [1 -3 0 0 0 0 0];


internalField   nonuniform List<scalar> 
1000
(
1.176539505307864
1.176516137248397
1.17656872108193
1.176610261570735
1.176658856503318
1.176703136208673
1.176740537142822
1.176771577225636
1.176797231962748
1.176814025141255
1.176818687143377
1.176817960992342
1.176814415276743
1.176805708898016
1.176789314762151
1.176764504431213
1.176732187656067
1.176693829244084
1.176650629674665
1.176603381153123
1.176552711676411
1.17649933861947
1.17644415829113
1.176388209309764
1.176332604772771
1.176278468236913
1.176226819376886
1.176178340410122
1.176133141112749
1.17609105659142
1.176053307114648
1.176025288020609
1.176013355789425
1.176012020422586
1.176012471019826
1.176014789371113
1.176021084702346
1.176033400133696
1.176053396083935
1.176081796848088
1.17611819469276
1.176161277853955
1.17620935503886
1.176260860385471
1.17631458589837
1.176369621450525
1.176425165625971
1.176480385867359
1.176534425595953
1.176586573835022
1.176636498883013
1.176684239884693
1.176729408206392
1.176769056610717
1.17679590264613
1.176805420296496
1.17680615473449
1.176805804556437
1.176803791007525
1.176798641836323
1.176788534952225
1.176771841079086
1.176747386082792
1.176714756549417
1.1766744142827
1.176627587524617
1.176575959612879
1.176521280083349
1.176465068792742
1.176408513674189
1.176352509114333
1.176297687147838
1.176244374200071
1.176192598834767
1.176142426139772
1.176095015390034
1.176054706411153
1.176029511833369
1.176021727958113
1.176021238474288
1.176021734112714
1.176023559545595
1.176028273682051
1.176037352759628
1.176052315435981
1.176074374405181
1.176104214133563
1.176141809626533
1.17618639446506
1.176236596575612
1.176290696417039
1.176346931722221
1.176403775481911
1.176460121556724
1.176515340093983
1.176569222493123
1.176621838220058
1.176673150491497
1.176721919027437
1.176763552106908
1.176789741056597
1.176797993070451
1.176798535671653
1.176798278053375
1.176796696013697
1.176792737692283
1.176784949562955
1.176771939657242
1.176752456449413
1.176725606919268
1.176691030252108
1.176649021609823
1.176600543259286
1.176547086116422
1.176490410745797
1.176432250044648
1.176374042375484
1.17631673063757
1.17626068713852
1.176205889118317
1.176152524126596
1.176102306506479
1.176060555258778
1.176035644397641
1.176028421538707
1.176027986469416
1.176028385738824
1.176029837851332
1.176033612678778
1.176040913729147
1.176053049747436
1.176071196249785
1.176096251742622
1.176128674543215
1.176168370328628
1.176214655037835
1.176266309763433
1.176321745418667
1.176379271531818
1.176437398837262
1.176495065845436
1.176551716018898
1.176607184023924
1.176661237773917
1.176712380248832
1.17675572894801
1.176782930843535
1.176791716329268
1.176792408790976
1.176792233070218
1.176791013861034
1.176787900556496
1.176781658314401
1.176771073441215
1.176754967965277
1.176732357109315
1.176702584328624
1.176665455472524
1.176621327418778
1.176571106314926
1.176516140838467
1.176458028932854
1.1763983615432
1.176338444225722
1.176279107009471
1.176220785615963
1.176164088000365
1.176111122497786
1.176067533583077
1.176041696017878
1.176034109790608
1.176033603593424
1.176033907644796
1.176035057866315
1.17603812683538
1.176044142777927
1.17605425770934
1.176069566202296
1.176091003847766
1.176119218551113
1.176154462493182
1.176196516624716
1.176244665611977
1.176297756213713
1.176354360523324
1.176413011128247
1.176472432158304
1.17653169424169
1.176590207860875
1.1766473491594
1.176701321159248
1.176747100898115
1.176776276074041
1.176786209888744
1.176787153450536
1.176787045800678
1.176786119814681
1.176783652909883
1.176778569249401
1.176769796941886
1.176756249396222
1.1767369437667
1.176711103146773
1.17667827351655
1.176638422963802
1.176591988040001
1.176539850748971
1.176483245177951
1.176423586680954
1.176362236052519
1.176300293321786
1.176238609421243
1.176178263391024
1.176121830109997
1.176075381016948
1.176047609396697
1.176039151494944
1.176038492520348
1.176038722480526
1.176039627538062
1.176042135071206
1.176047144989515
1.176055689018635
1.176068779692118
1.17608733586826
1.176112082398413
1.176143460436113
1.176181549020429
1.176226010991611
1.176276096260279
1.176330728766275
1.176388660893751
1.176448650339706
1.176509615198351
1.176570680607687
1.176630883860303
1.176688123703796
1.176737178834943
1.176769350338397
1.176781132925494
1.176782506157317
1.176782454420127
1.176781750037956
1.176779794860427
1.176775629047545
1.176768293056702
1.176756783148811
1.176740149153872
1.17671757185982
1.176688458152921
1.17665253011542
1.176609884582279
1.176561011324358
1.176506762977504
1.176448257357628
1.17638670908996
1.176323263381485
1.176258996044866
1.17619532191458
1.176135168799377
1.176084949655285
1.176053954353249
1.176043816204463
1.176042859804169
1.176043025819712
1.176043723326858
1.17604577366912
1.176049974300546
1.176057255154449
1.176068548097473
1.176084735306469
1.17610657001267
1.176134601669287
1.176169102040643
1.17621000390853
1.176256880195899
1.176308984218482
1.176365341695436
1.176424871294947
1.176486510304781
1.176549267584472
1.17661198025316
1.176672377787189
1.176725207043269
1.176761477640399
1.176776149242414
1.176778284334739
1.17677828508109
1.176777766582233
1.176776225217514
1.176772804304403
1.176766637668481
1.176756799021872
1.176742381866653
1.176722559142442
1.176696661949954
1.176664255753457
1.176625198770594
1.176579677625508
1.176528213440505
1.17647161456717
1.176410867000953
1.176347020247184
1.17628120126708
1.17621496694286
1.176151359847937
1.176096854775537
1.176061365991869
1.176048439833557
1.176046891988715
1.176046998175105
1.176047505560694
1.176049154013715
1.176052658233353
1.176058873907449
1.176068663536912
1.176082865518779
1.176102231476013
1.176127366327775
1.176158663553925
1.176196246184902
1.176239935791576
1.176289263614009
1.176343518097158
1.176401820223646
1.176463216632935
1.176526723546402
1.176591124387509
1.176654164609894
1.176710818656427
1.176752035265519
1.1767708250064
1.176774309150817
1.176774385115626
1.176774032322368
1.176772848854291
1.17677006481661
1.176764889026425
1.176756459641071
1.176743916446964
1.176726445513554
1.176703342710788
1.176674075902191
1.176638337534797
1.176596087407636
1.176547578133528
1.176493339269914
1.176434112860655
1.176370787669718
1.17630442977624
1.176236579482365
1.176170160611411
1.176111364744361
1.176070424674016
1.176053381734618
1.17605072618637
1.176050788911949
1.176051159542779
1.176052472261015
1.176055361199517
1.176060620058122
1.176069056678843
1.176081479306813
1.176098643797672
1.176121201764549
1.17614964063594
1.176184225827951
1.176224962465535
1.176271586871997
1.176323586247012
1.176380247895586
1.176440730817959
1.176504100685827
1.17656919540254
1.176633912012933
1.176693733306932
1.176739982202549
1.176763769588862
1.176769658918327
1.176769949732396
1.176769997404521
1.176769376429611
1.176767519018151
1.176763624023214
1.176756801628885
1.176746142224015
1.176730793683984
1.176710019517615
1.176683249460678
1.176650121016525
1.176610505837905
1.176564520738335
1.176512526659705
1.176455102684161
1.176393008266669
1.17632717031794
1.176258905139857
1.176190869169398
1.176128677775278
1.176082256444953
1.176059026538093
1.176053747867293
1.176052682888739
1.176052067185688
1.176052288687242
1.176053826784492
1.176057555539348
1.176064348244555
1.176075073342594
1.176090555041321
1.176111474799057
1.17613831175067
1.176171322812504
1.176210535552355
1.17625574858822
1.176306547321529
1.176362344769103
1.176422430311508
1.17648596455268
1.176551857955493
1.176618305207579
1.176681071142707
1.176731820609848
1.176762628706328
1.176773631334253
1.176775119806398
1.176775585936176
1.176775282268785
1.176773804586249
1.176770460898383
1.176764541053415
1.1767551776743
1.17674142704835
1.176722445812712
1.176697593888202
1.176666447536732
1.17662879129974
1.176584624058251
1.176534161950064
1.176477816891979
1.176416192194561
1.176350173828383
1.176281113675158
1.176211316601664
1.176145780590998
1.176093788231843
1.176063628235667
1.176053468653187
1.176052033424558
1.176051589269757
1.176052055872528
1.176053762994817
1.176057338631626
1.176063447444387
1.176072904362798
1.176086578789008
1.176105245552208
1.176129499813403
1.17615972973987
1.176196103800316
1.176238564420002
1.176286839482795
1.176340480762273
1.176398902557531
1.176461331317652
1.176526656883106
1.176593197967504
1.176657696571279
1.176713170869976
1.176750736160995
1.176767398689215
1.176770567722987
1.176770992991631
1.17677083466964
1.176769655428453
1.17676679530001
1.176761657631871
1.176753512582247
1.176741503930536
1.176724780118385
1.176702602428078
1.176674394808703
1.176639772823064
1.176598570065776
1.1765508535922
1.176496914494949
1.176437259082832
1.17637269028719
1.176304471512565
1.176234602260916
1.176166953007868
1.176109542240807
1.176072195142889
1.176056772184214
1.176054003958031
1.176053647413694
1.176054000028855
1.176055473027636
1.176058656455541
1.176064122744683
1.176072580245093
1.176084821509669
1.176101599643505
1.17612355367889
1.176151177510672
1.176184790363163
1.176224502699653
1.176270197362238
1.17632154294013
1.176378027278709
1.176438938293181
1.17650325657965
1.176569489748379
1.176635082224867
1.176694454894685
1.176738447044261
1.176761392958283
1.17676751976683
1.176767877892654
1.176767882057646
1.176766953292208
1.176764550126433
1.176760115991623
1.176753002430007
1.17674241732917
1.176727536568195
1.176707609439028
1.176682002464386
1.17665022132083
1.176611947474886
1.176567081631173
1.176515768225271
1.176458399421272
1.17639566149826
1.176328671640742
1.176259182609002
1.176190272134601
1.176128441138119
1.176083978249772
1.176062305025631
1.176056901800897
1.176056549919654
1.176056752900683
1.176057980224815
1.176060743859412
1.176065565100038
1.176073078826102
1.176084031700332
1.176099155950562
1.176119091435984
1.176144368443358
1.176175391609826
1.17621240038091
1.176255427298664
1.176304279269662
1.176358551247802
1.17641763095382
1.176480610379602
1.176546141870318
1.176612139136337
1.176674369213211
1.176724359124334
1.176754044246881
1.176764389719334
1.176765523636279
1.17676546027581
1.176764710965697
1.176762716996073
1.176758910546032
1.176752710923989
1.176743378391713
1.176730114185159
1.176712168649947
1.176688884272392
1.17665970926037
1.176624228860019
1.176582213208604
1.176533661724691
1.176478826401364
1.176418243585156
1.176352859607827
1.176284207268936
1.176214787204627
1.17614966816074
1.176098571982994
1.176069969288784
1.176060645568598
1.176059724792913
1.176059918728157
1.176060899317776
1.176063258188796
1.176067463733899
1.176074091720183
1.176083853072252
1.176097466623356
1.17611557165595
1.176138714692803
1.17616734567174
1.176201785854001
1.176242181515455
1.176288468493168
1.176340365702548
1.176397376768868
1.176458718944213
1.176523204802648
1.176589080475975
1.1766531068854
1.176708168031049
1.176744766238833
1.176760684988006
1.176763515828835
1.176763310985631
1.176762753433896
1.176761080680224
1.176757810433232
1.176752411810946
1.176744205245193
1.176732411366633
1.176716275123092
1.176695120082382
1.17666835916317
1.176635516681563
1.17659627119834
1.176550503469131
1.176498331225991
1.176440139892554
1.176376686779703
1.176309275025283
1.176239996176596
1.176172827811291
1.176116030756241
1.176079955125828
1.176065471682682
1.176063028209863
1.176063256170657
1.176063999615613
1.176066017015508
1.176069691335507
1.176075539982758
1.17608422355184
1.176096454761952
1.176112883176275
1.176134068274448
1.176160484964506
1.17619250527086
1.176230357412233
1.176274084976731
1.176323523062921
1.17637829230902
1.176437759199996
1.176500914210437
1.176566220838583
1.176631095785559
1.176690057866507
1.176733472906405
1.176755613762007
1.17676129087925
1.176761502592976
1.176760962357514
1.176759517155275
1.176756706783845
1.176752007757353
1.176744803723409
1.1767343447413
1.1767198742584
1.17670070258048
1.176676215019285
1.176645885922685
1.176609320831444
1.176566304095913
1.176516839646935
1.176461183741695
1.176399915969909
1.176334113105588
1.176265563960402
1.176197393078573
1.176136096052607
1.17609244732702
1.176071761115271
1.176066686250304
1.176066600212882
1.176067217244559
1.1760689273602
1.176072144187516
1.176077314327455
1.1760850420732
1.176096026278585
1.17611092225055
1.176130298324894
1.176154646576085
1.17618437587153
1.176219776614913
1.176260978599877
1.176307918061764
1.176360326728801
1.176417709747877
1.17647922425431
1.176543523840382
1.176608526814056
1.176670121649042
1.176719752315581
1.176748745654699
1.176758914851625
1.176759997557069
1.176759415904702
1.176758226447274
1.176755762313873
1.176751610189841
1.176745239905638
1.176735944307159
1.176722971305601
1.176705617404634
1.176683242568054
1.176655281557303
1.176621282560355
1.176580953192896
1.176534201540182
1.176481167387067
1.176422268256697
1.176358359153512
1.176290957567557
1.176222580355883
1.176158254989448
1.176107772090713
1.176080026702445
1.176070930616217
1.176069999506335
1.176070633010627
1.176071985169619
1.176074805144761
1.176079393124061
1.176086274661777
1.176096121839242
1.176109601293727
1.176127297147065
1.176149716980821
1.176177293956612
1.176210359178445
1.176249105364024
1.17629355602431
1.176343545446845
1.176398697908262
1.176458341884124
1.176521357377524
1.176585991499908
1.176649035213006
1.176703669201679
1.176739931663072
1.176755628143665
1.176758466249637
1.176758166121548
1.176757102631665
1.176754929435456
1.176751252487464
1.17674558942224
1.176737311402284
1.176725680497754
1.176709984263326
1.176689570804222
1.176663846025758
1.176632305550322
1.176594589021436
1.176550522588945
1.176500147380842
1.176443753365586
1.176381992282684
1.176316106004363
1.176248189973037
1.176182139603276
1.17612595571124
1.176090334252947
1.176076172654119
1.176073597842237
1.176073962308508
1.17607510504143
1.176077571778047
1.176081664284663
1.176087827197133
1.176096670413702
1.176108854061807
1.17612498201079
1.176145588305539
1.176171135680204
1.176201990692352
1.176238392634034
1.176280427067081
1.176328004156958
1.176380847020075
1.176438444053374
1.176499881868277
1.176563646672842
1.176627216352998
1.176685436659253
1.176728797777726
1.1767507511396
1.176756897810107
1.176757148845283
1.176756167293869
1.176754276948015
1.176750947478552
1.176745836679235
1.17673840650976
1.176727963933811
1.176713799487584
1.176695236231169
1.176671639469014
1.176642454802876
1.176607264527421
1.17656582811075
1.176518108117415
1.176464293875592
1.176404864178081
1.176340796977284
1.176273854568956
1.176207092176744
1.176146704017317
1.176103323264313
1.176082921594214
1.176077471680604
1.17607722596406
1.17607823335125
1.176080326926702
1.176084028090863
1.176089608340358
1.176097596909191
1.176108625615951
1.176123302502182
1.176142188866056
1.176165794163755
1.17619453681758
1.176228700318922
1.176268411316795
1.176313629978893
1.176364145768327
1.176419555278622
1.176479137401634
1.176541656530333
1.176605104318764
1.176665532942419
1.17671491905213
1.176744112608329
1.176754774860868
1.176756218688343
1.176755540181626
1.176753907415652
1.176750878280016
1.1767461870946
1.176739411241902
1.17672995038994
1.176717122968624
1.176700251328414
1.176678673271456
1.176651768683598
1.17661902950937
1.176580133617962
1.176534984006227
1.176483712902442
1.176426696452927
1.1763647047408
1.176299174696621
1.176232536596089
1.176169546980612
1.176119443384186
1.176091502467117
1.176082124398924
1.176080711155684
1.176081349083745
1.176083093131388
1.176086429468863
1.176091557218948
1.176098894390905
1.176108977817163
1.176122368421676
1.176139628052834
1.176161318704245
1.176187948463909
1.176219892095202
1.176257342754873
1.176300301889603
1.17634858476186
1.176401832636884
1.176459457612301
1.176520446897785
1.176583132236072
1.176644524769094
1.176698424429969
1.176735227388567
1.176751296927283
1.17675510250883
1.176755131714992
1.176753811699776
1.17675115515126
1.176746770370233
1.176740421238581
1.17673165427104
1.176719903165923
1.176704541060049
1.176684883905676
1.176660231588121
1.176629962203349
1.176593631062973
1.176551034837051
1.176502242735096
1.176447595569077
1.176387742256751
1.176323868401035
1.176257996824035
1.176193770688026
1.176138542552376
1.176102570040907
1.176088035553798
1.176084765276747
1.17608448231695
1.17608578873897
1.17608862048023
1.176093350587141
1.176100229124178
1.176109659563382
1.176122087522063
1.176137983965083
1.176157888382003
1.176182387716602
1.176212010412653
1.176247109472734
1.176287797931163
1.176333936330515
1.176385157981035
1.176440896790524
1.176500268975335
1.176561857931582
1.176623362881393
1.176680059228911
1.176723289954643
1.176746166324808
1.176753254364991
1.176754314730225
1.176753789531488
1.17675176619061
1.176747890615046
1.176741914150749
1.176733532033646
1.176722388340001
1.176708065274338
1.176690022616723
1.176667560095494
1.176639895022858
1.176606335783781
1.176566455056352
1.176520181581155
1.17646781384372
1.176409986668139
1.176347767135443
1.176282910336336
1.176218288027158
1.176159639087929
1.176116762365984
1.176095530249429
1.176089434431642
1.176088457007733
1.176088818286561
1.176090770133153
1.176094717080094
1.176101020566039
1.176110015330079
1.176121970777889
1.176137103815869
1.17615569726153
1.176178224793976
1.176205341705387
1.176237720202131
1.176275819888938
1.176319716383526
1.176369050030942
1.176423129756808
1.176481025212382
1.176541445982877
1.176602548055386
1.176660863991313
1.176709105461271
1.176739056042163
1.176750564543882
1.176752696921363
1.176752920315927
1.176751861580693
1.17674915292812
1.176744234421047
1.176736598659105
1.1767258276877
1.176711705166096
1.176694143207374
1.176672952969011
1.17664766273235
1.176617492299756
1.176581445888398
1.176538591333794
1.176488648867648
1.176432751477509
1.176371937533933
1.176308472948408
1.176231652694083
)
;

boundaryField
{
    inlet
    {
        type            calculated;
        value           uniform 1.176427481426743;
    }
    outlet
    {
        type            calculated;
        value           uniform 1.176197755746704;
    }
    frontAndBack
    {
        type            empty;
    }
}


// ************************************************************************* //
