/*--------------------------------*- C++ -*----------------------------------*\
| =========                 |                                                 |
| \\      /  F ield         | OpenFOAM: The Open Source CFD Toolbox           |
|  \\    /   O peration     | Version:  v2012                                 |
|   \\  /    A nd           | Website:  www.openfoam.com                      |
|    \\/     M anipulation  |                                                 |
\*---------------------------------------------------------------------------*/
FoamFile
{
    version     2.0;
    format      ascii;
    class       volScalarField;
    location    "0.0115";
    object      T;
}
// * * * * * * * * * * * * * * * * * * * * * * * * * * * * * * * * * * * * * //

dimensions      [0 0 0 1 0 0 0];


internalField   nonuniform List<scalar> 
1000
(
300.0090459541228
300.0072942398426
300.0136945765646
300.018625211827
300.0234502135359
300.027764881673
300.0317962022517
300.035465732113
300.0386065378249
300.0407339949458
300.0414716349583
300.041597347058
300.0414219188699
300.0406313267192
300.0389999701144
300.0364852282404
300.0331623672839
300.0291831769846
300.0246866045129
300.019767677742
300.0145005540703
300.0089660577261
300.00326146203
299.9974967351261
299.9917874622382
299.9862482535535
299.9809812225372
299.9760524972196
299.9714688273359
299.9672086461023
299.9633917762874
299.9605639750074
299.959371411363
299.9592521759483
299.9593099259325
299.9595484701774
299.9601812989379
299.961426214795
299.9634544190353
299.9663402404298
299.9700436627553
299.9744321133905
299.9793335527908
299.9845881832977
299.9900723038413
299.995692300259
300.0013654781216
300.0070059395214
300.0125254549922
300.0178508742785
300.0229479977777
300.0278207296452
300.0324296007936
300.0364741850863
300.0392117927651
300.0401811846947
300.0402546603946
300.0402173211282
300.0400107141637
300.0394852207237
300.0384542261305
300.0367512864496
300.0342565475173
300.0309276820896
300.0268116565502
300.0220336880786
300.016765484043
300.0111855563287
300.0054490201701
299.9996771458283
299.9939612601965
299.9883659185567
299.9829244795983
299.9776398875927
299.9725188009759
299.9676795562287
299.9635651411901
299.9609934704624
299.9601989955773
299.9601490975182
299.9601997480334
299.9603861069713
299.9608672951181
299.9617940285738
299.9633213227876
299.9655729485543
299.9686187500827
299.9724561428866
299.9770068556966
299.9821307985231
299.9876524257295
299.9933918468765
299.9991932005112
300.0049435945779
300.0105787558619
300.016077406674
300.0214466470719
300.026682733978
300.031659119056
300.0359072925867
300.0385795197637
300.0394215189214
300.0394768859094
300.0394506039674
300.0392891848154
300.0388852982327
300.0380906308873
300.036763145807
300.0347751289178
300.0320354372054
300.0285072219385
300.0242205609868
300.0192736014067
300.0138184407386
300.0080347064094
300.0020992205782
299.9961587659902
299.9903095753035
299.984589655541
299.978996694327
299.9735498442734
299.9684241014679
299.9641624204479
299.9616196416303
299.9608823624785
299.9608379551267
299.9608787143669
299.961026943394
299.9614122639275
299.9621575234967
299.963396307454
299.9652485955195
299.9678060831804
299.9711155241301
299.9751672537569
299.9798914077217
299.9851635328381
299.9908214031283
299.9966924608893
300.0026247014242
300.008509792887
300.0142909455885
300.0199512966262
300.0254671725123
300.0306858269009
300.0351090807615
300.037884677012
300.0387811129043
300.0388517713789
300.0388338455594
300.038709446772
300.0383917805591
300.0377548480312
300.0366748044202
300.0350314444896
300.0327242684676
300.0296862591289
300.0258975715872
300.0213945808709
300.0162697090538
300.0106605416593
300.004730113832
299.9986407636266
299.9925257213637
299.986469699752
299.9805171759982
299.9747302114047
299.9693240189706
299.9648747798298
299.9622374171257
299.9614630506431
299.9614113839403
299.9614424245984
299.9615598393365
299.9618731095103
299.9624871913661
299.9635196736094
299.9650822764766
299.9672704855805
299.9701504127812
299.9737477681581
299.9780401554164
299.9829545198118
299.9883731139395
299.994150166688
300.0001358894154
300.0062000576864
300.0122478224509
300.018219026756
300.0240500159899
300.0295574352966
300.0342287743965
300.0372057307692
300.0382193418239
300.0383156225311
300.0383046433308
300.0382101653959
300.0379584559292
300.0374397410121
300.0365446461775
300.0351622925935
300.0331923815431
300.0305556199378
300.0272056523662
300.0231391866208
300.0184007276533
300.0130802356189
300.0073036054749
300.001215242188
299.9949539980367
299.9886321276401
299.9823364752141
299.9761771775811
299.9704170652804
299.9656759022986
299.9628411314171
299.9619777910542
299.9619105304183
299.9619340090653
299.962026399371
299.9622823611341
299.9627937529971
299.9636658859208
299.9650021078971
299.9668961999203
299.9694221327759
299.9726249109847
299.9765125693958
299.9810506557714
299.9861625697139
299.9917384447276
299.9976509143395
300.003773167105
300.0099947746513
300.016226450079
300.0223699527119
300.0282108737677
300.0332164615357
300.0364991691335
300.0377014253132
300.0378415484432
300.0378362750239
300.0377644092176
300.0375649145764
300.037139853397
300.036391315509
300.0352168775441
300.0335195777537
300.0312158105322
300.0282450327932
300.0245788552326
300.0202271212759
300.0152397664612
300.0097037556351
300.0037331209351
299.997451784809
299.9909765984141
299.9844173441738
299.9779184208478
299.971778674098
299.9666527228136
299.9634889085776
299.9624540587449
299.9623564380202
299.9623733888314
299.9624445931929
299.9626538866465
299.9630826696345
299.9638258634977
299.9649785834882
299.9666308686863
299.9688595902891
299.9717208118421
299.9752422447793
299.9794169935768
299.9842014283051
299.9895192979188
299.9952711267047
300.0013465219864
300.0076370026181
300.0140414037019
300.0204410469527
300.0266042415552
300.0319949787394
300.0356959664865
300.0371930110869
300.0374108711777
300.0374109520682
300.0373580524493
300.0372007810706
300.0368517258176
300.0362225041088
300.0352185965904
300.0337474996938
300.0317248101665
300.0290822561351
300.0257754718598
300.0217899563076
300.0171447134435
300.0118928778372
300.0061168963423
299.999917350356
299.9934013122637
299.9866837715513
299.9799236118854
299.9734313802974
299.9678679963104
299.9642455310882
299.9629260965524
299.9627681031333
299.9627789461117
299.9628307426894
299.962999012127
299.9633567075836
299.9639911722046
299.964990441726
299.9664400881783
299.968416821347
299.9709823700623
299.9741768737597
299.9780128596967
299.9824720797275
299.9875066496351
299.993043905284
299.9989940958183
300.005259891101
300.0117408670042
300.018312854682
300.0247457823566
300.0305268516723
300.0347325467029
300.0366497977618
300.037005310342
300.0370130649958
300.0369770713742
300.0368563176502
300.0365722457008
300.0360441253416
300.0351840139015
300.0339041320262
300.0321214186326
300.0297640103967
300.0267775866458
300.0231307352873
300.0188193178977
300.0138690704271
300.0083339877598
300.0022897505037
299.9958270179578
299.9890545549395
299.9821295402264
299.9753503860313
299.9693490874765
299.9651702149708
299.9634305643919
299.963159501155
299.9631659065353
299.9632037423752
299.9633377405162
299.9636326298927
299.9641694264734
299.9650305875161
299.966298608695
299.9680506340308
299.9703531615839
299.9732559239357
299.9767859853786
299.9809438357798
299.985702524322
299.991009671592
299.9967924983467
300.0029651360251
300.0094321994843
300.0160750703723
300.0226791348283
300.0287834530558
300.0335026717939
300.0359298781
300.0365308078616
300.0365604834716
300.0365653507591
300.036501991257
300.0363124682788
300.0359150352451
300.035218896045
300.0341312322577
300.0325650874102
300.0304452984489
300.0277136569192
300.0243331472373
300.0202906392249
300.0155980134423
300.0102920587646
300.0044318241805
299.9980947686736
299.9913754473154
299.9844081672167
299.9774640357521
299.9711162169812
299.9663778920474
299.9640067195824
299.9634679015491
299.963359196386
299.9632963504725
299.9633189619802
299.9634759644325
299.9638565760031
299.9645499362574
299.9656446869267
299.9672249503874
299.969360272464
299.9720995405352
299.9754689526442
299.9794712905891
299.9840859626198
299.9892706122592
299.994965289175
300.0010974276429
300.0075813251048
300.0143057609051
300.0210864861476
300.0274913278548
300.0326698108756
300.0358134041267
300.0369360775317
300.0370879580032
300.0371355219741
300.0371045381168
300.0369537612827
300.0366125820265
300.0360085377653
300.0350531207708
300.0336500307295
300.03171320179
300.0291773042661
300.0259990760916
300.022156500181
300.0176494239887
300.0124998595654
300.0067497948462
300.0004607494427
299.9937230933247
299.9866747568415
299.9795509546782
299.9728618177281
299.9675548862252
299.9644763447275
299.9634393088681
299.9632928093333
299.9632474736674
299.9632951035482
299.9634693586488
299.9638343401765
299.9644578919733
299.9654231943613
299.9668189846524
299.9687243420969
299.9712000006593
299.9742855590999
299.9779981843088
299.9823319650004
299.9872590881534
299.9927337645109
299.998696174758
300.0050673315305
300.0117339033477
300.0185242905181
300.0251060221187
300.0307666903923
300.0345998030495
300.0363000006285
300.0366233591067
300.036666753121
300.0366505997309
300.0365302749293
300.0362384361906
300.0357142017676
300.0348830982604
300.0336577543127
300.0319512702762
300.0296882548993
300.0268099080999
300.023276973903
300.0190724365203
300.0142030965256
300.008698612063
300.0026106020171
299.9960209581564
299.9890585747899
299.9819274909841
299.9750227398886
299.9691628018943
299.9653506696973
299.9637763791079
299.963493813077
299.9634574195165
299.9634934136627
299.9636437706414
299.963968717714
299.9645266841349
299.9653899716244
299.9666394743702
299.9683520562147
299.9705929321369
299.9734124962856
299.9768433068883
299.9808966070523
299.9855604014849
299.9908008237318
299.9965655593756
300.0027818913657
300.0093457455183
300.0161047919062
300.0227982276535
300.0288567572303
300.0333456939809
300.035687040615
300.036312200818
300.0363487429137
300.0363491686965
300.0362544015431
300.0360091901831
300.0355567424423
300.0348308893054
300.0337508017528
300.0322323814718
300.0301990163469
300.0275860500512
300.0243430177799
300.0204373841059
300.0158589773261
300.0106224910534
300.0047678954475
299.9983651753461
299.9915282972448
299.9844361087501
299.9774027164906
299.9710916757254
299.9665532499026
299.9643409752657
299.9637894421676
299.963753523774
299.9637742433372
299.9638995228997
299.9641816201044
299.9646737439999
299.9654406969526
299.9665586896815
299.9681024564124
299.9701372987598
299.9727173285273
299.975883825678
299.9796612019318
299.9840527441525
299.9890387046013
299.9945777004961
300.0006071991979
300.007034491312
300.0137220109208
300.0204568344208
300.0268070134074
300.0319080055455
300.0349370213205
300.0359926427099
300.0361083435191
300.0361018783933
300.0360254217816
300.0358219639349
300.0354335640328
300.0348009676391
300.0338486904141
300.0324952226051
300.0306640616196
300.0282881013887
300.0253110166657
300.0216904575258
300.0174029323244
300.0124483388635
300.0068523441814
300.0006696314693
299.9939967271154
299.9869900220925
299.9799047095975
299.9732581419519
299.9680426922968
299.9651231145227
299.9641713998111
299.9640774111505
299.9640972066172
299.9641973000768
299.9644380811858
299.9648673587178
299.9655439010863
299.9665402715688
299.9679298382086
299.9697778454375
299.972140064732
299.9750624030556
299.9785776264806
299.9827006336337
299.9874248384742
299.9927215111564
299.9985399477813
300.0048002200541
300.0113811085475
300.0181036041011
300.0246371639847
300.0302556846633
300.0339901238675
300.0356144312424
300.0359032805787
300.0358823781208
300.0358254870929
300.0356548050652
300.0353211184624
300.0347702550509
300.0339328704035
300.0327294346246
300.0310828958484
300.0289242199057
300.0261934838068
300.0228421240184
300.01883730801
300.0141668278798
300.0088426517643
300.0029040616337
299.9964282916359
299.989548288156
299.982477481043
299.9756218314053
299.9698245513505
299.9661422115041
299.9646638253466
299.9644144078388
299.9644376757486
299.9645135618246
299.9647194870746
299.9650945405544
299.9656915333977
299.9665778917239
299.9678263602328
299.9695032340143
299.9716656090181
299.9743619435959
299.9776301884033
299.9814936091453
299.985956620381
299.991002352256
299.9965920439451
300.0026609963289
300.0091061414324
300.0157706449923
300.0223908719794
300.028407516283
300.0328375728812
300.0350967771009
300.0356760523914
300.0356976537525
300.0356425286991
300.0354950645631
300.035208302648
300.0347288251387
300.0339937380923
300.0329265150919
300.0314499523348
300.0294936642347
300.026994913452
300.0239000410894
300.0201687673426
300.0157790503454
300.0107312479923
300.0050514624062
299.998798790348
299.9920830724533
299.9850868327577
299.978128952062
299.9718724366975
299.9674171301259
299.9653056111736
299.9647875969247
299.9647788130736
299.9648417941611
299.9650163525038
299.9653447074655
299.9658724426892
299.9666612375235
299.9677824219477
299.9693028783246
299.9712806080776
299.9737658239118
299.9768002398541
299.9804134719502
299.9846187366095
299.9894094889531
299.9947583076452
300.0006146451456
300.0068924396398
300.013454250642
300.0200876211634
300.0263729910899
300.0314373363857
300.0343957690064
300.0354334055397
300.0355438800075
300.0354845281228
300.0353631583472
300.0351117253138
300.0346880530331
300.0340380413639
300.0330895301703
300.0317657720566
300.0299949745825
300.0277118161111
300.0248586012652
300.0213892013916
300.0172737480792
300.0125028219048
300.0070906414619
300.0010797650674
299.9945573986139
299.9876783689489
299.98069952182
299.9741339917443
299.9689811635046
299.9661491062828
299.9652206311031
299.9651255869653
299.9651902493026
299.9653282681576
299.9656161140275
299.9660844259336
299.9667868459892
299.9677919717982
299.9691678430315
299.9709740736712
299.9732624610767
299.9760772014251
299.9794520679037
299.9834067024793
299.9879434708909
299.9930454213883
299.9986741657234
300.0047611274052
300.0111919675171
300.0177877748004
300.0242210689814
300.0297960155999
300.0334962032031
300.0350978336156
300.0353874242554
300.0353567982393
300.0352482806148
300.0350265329159
300.0346513463464
300.0340734986052
300.0332288210744
300.0320420118587
300.0304403665747
300.0283573553659
300.0257323409422
300.0225138340181
300.0186650336767
300.0141681628274
300.0090273751674
300.0032722137097
299.9969691400112
299.9902448476474
299.9833131622079
299.9765716549136
299.9708369903582
299.9672010275659
299.9657555005703
299.9654926777906
299.9655298781224
299.9656465185718
299.9658983064246
299.966316042773
299.9669451102235
299.9678477594601
299.9690913663977
299.9707375617435
299.9728408454714
299.975448434238
299.9785977224682
299.982313108703
299.98660329474
299.991459075542
299.9968521521021
300.0027302693075
300.0090001710008
300.0155073397098
300.0219943821049
300.0279353489435
300.0323599150386
300.034599992476
300.0352271813083
300.0352527940955
300.0351526362809
300.0349597485998
300.0346200173061
300.0340985219065
300.033340358805
300.0322748076071
300.0308294692267
300.0289352597852
300.0265274012377
300.0235493029268
300.0199583152237
300.0157298600458
300.0108600770871
300.0053682412798
299.9993031651604
299.9927646052849
299.9859323789925
299.9791182893978
299.9729545752621
299.9685266472502
299.9664441847041
299.9658878907123
299.9658628073703
299.9659656323572
299.9661793291501
299.9665571190072
299.9671267119326
299.9679421252069
299.9690678457765
299.9705659311707
299.9724936645133
299.9749030332313
299.9778367277863
299.9813236605455
299.9853767294879
299.9899918354803
299.9951474531106
300.0008023709632
300.0068829553596
300.0132630736686
300.0197377523224
300.0259041327622
300.0309435388785
300.0339224092364
300.0350103582038
300.0351576807052
300.0350884455107
300.0349218396053
300.0346127524929
300.034134073225
300.0334426758716
300.032477299938
300.0311683935704
300.0294468019762
300.0272449428929
300.0244995226359
300.0211586750376
300.017189498356
300.0125820564709
300.0073497997861
300.0015310672129
299.9952044007485
299.9885164066899
299.9817150931945
299.9752859373467
299.9701718580365
299.9673198605851
299.9663626080784
299.9662183517116
299.9662834648532
299.9664614825261
299.9668020313155
299.9673254348426
299.9680743575354
299.969103591347
299.9704703853487
299.9722320801608
299.9744460275001
299.9771640720937
299.9804244445783
299.9842468333595
299.9886313543314
299.9935591168214
299.998993469978
300.0048743751324
300.0110984366442
300.017495380555
300.0237601936235
300.0292602248088
300.0330155766782
300.0346552776327
300.0350435888948
300.0350465671949
300.0349118732076
300.0346408036662
300.0341933892088
300.0335455343046
300.0326509628069
300.0314518854501
300.0298843309367
300.0278784893982
300.0253629064667
300.0222741017462
300.0185666704345
300.0142198289828
300.0092405989042
300.0036637146002
299.997555353077
299.9910364683436
299.9843134757796
299.9777581986615
299.9721211256769
299.9684493566215
299.9669657781069
299.966631969154
299.9666030849119
299.9667364331094
299.967025475299
299.9675082891816
299.9682103969257
299.969172978402
299.9704415138188
299.9720640684088
299.9740956987653
299.9765963009208
299.979619794231
299.9832021845522
299.9873549786601
299.9920639081221
299.9972915106346
300.00297997386
300.0090390671608
300.0153241941788
300.021600549012
300.0273860224108
300.0317972991714
300.034131566645
300.0348548122284
300.0349630079875
300.0349094161345
300.0347029566986
300.0343074996911
300.0336976709315
300.0328423695764
300.0317052734834
300.030243745459
300.0284026536398
300.0261105304999
300.0232874926171
300.0198629416868
300.0157932397624
300.0110710754312
300.0057268639003
299.9998253433212
299.9934753700692
299.9868560301086
299.9802604029305
299.9742742475963
299.9698978006463
299.9677305901148
299.9671083718517
299.9670086024285
299.967045476207
299.9672446996365
299.9676475644784
299.9682909630461
299.9692090624868
299.9704293614156
299.9719739990683
299.973871840027
299.9761712251238
299.9789390226695
299.9822438123636
299.9861324577503
299.9906126204816
299.9956475357863
300.0011666146441
300.0070748531101
300.0132405404296
300.0194755560979
300.0254261877914
300.0303488841727
300.0334054936231
300.0345805881769
300.0347988807648
300.034822495897
300.0347156827788
300.0344407066419
300.033940670285
300.0331632937818
300.0320623340995
300.0306098719435
300.0287952826303
300.0266107914964
300.0240318895756
300.0209929742117
300.0173660798464
300.0129821105057
300.0077230279184
300.0016781237856
299.995222765967
299.989331946761
299.9835094733655
)
;

boundaryField
{
    inlet
    {
        type            fixedValue;
        value           uniform 300;
    }
    outlet
    {
        type            temperatureOutletNSCBC;
        pInf            101325;
        gamma           1.4;
        etaAc           1;
        fieldInf        1;
        lInf            2.25;
        value           uniform 299.9809661315213;
    }
    frontAndBack
    {
        type            empty;
    }
}


// ************************************************************************* //
