/*--------------------------------*- C++ -*----------------------------------*\
| =========                 |                                                 |
| \\      /  F ield         | OpenFOAM: The Open Source CFD Toolbox           |
|  \\    /   O peration     | Version:  v2012                                 |
|   \\  /    A nd           | Website:  www.openfoam.com                      |
|    \\/     M anipulation  |                                                 |
\*---------------------------------------------------------------------------*/
FoamFile
{
    version     2.0;
    format      ascii;
    class       volVectorField;
    location    "0.0115";
    object      U;
}
// * * * * * * * * * * * * * * * * * * * * * * * * * * * * * * * * * * * * * //

dimensions      [0 1 -1 0 0 0 0];


internalField   nonuniform List<vector> 
1000
(
(0.002920256129018633 0 0)
(0.03443761883441748 0 0)
(0.04259182899963696 0 0)
(0.05763326734124187 0 0)
(0.07142785025483547 0 0)
(0.08440891725303623 0 0)
(0.09560546876146654 0 0)
(0.105164361593511 0 0)
(0.1131767634982039 0 0)
(0.1185177207075698 0 0)
(0.1200683795873664 0 0)
(0.1200030338900774 0 0)
(0.1191439058748072 0 0)
(0.1166411240638091 0 0)
(0.1118402708262503 0 0)
(0.1045318917910056 0 0)
(0.0949732607041469 0 0)
(0.08359781395888995 0 0)
(0.07077442889872206 0 0)
(0.0567489298030675 0 0)
(0.041713542420125 0 0)
(0.0258853698522547 0 0)
(0.009535623545767303 0 0)
(-0.007024065931483828 0 0)
(-0.02346589801411158 0 0)
(-0.03946159075591209 0 0)
(-0.05470902724279113 0 0)
(-0.06900377346777484 0 0)
(-0.08231904237929841 0 0)
(-0.09471711814646296 0 0)
(-0.105841840251102 0 0)
(-0.1140882483888562 0 0)
(-0.1175802329050661 0 0)
(-0.117956872615629 0 0)
(-0.1178312666174524 0 0)
(-0.117133209850377 0 0)
(-0.1152863777408406 0 0)
(-0.1116593641051226 0 0)
(-0.1057652871109742 0 0)
(-0.09739024175331717 0 0)
(-0.08665393257044089 0 0)
(-0.07394119876316702 0 0)
(-0.05975016331557225 0 0)
(-0.04454523753794351 0 0)
(-0.02868532922675359 0 0)
(-0.01243714280449299 0 0)
(0.003965652046806524 0 0)
(0.0202734701926634 0 0)
(0.03622609192006707 0 0)
(0.05161584732477015 0 0)
(0.06635599567324657 0 0)
(0.08045774665531735 0 0)
(0.0937884478008388 0 0)
(0.1054736389802687 0 0)
(0.1133903643038872 0 0)
(0.1162156242413923 0 0)
(0.1164450698479654 0 0)
(0.1163061246484122 0 0)
(0.1157316069905208 0 0)
(0.1142056267248673 0 0)
(0.1112238612888016 0 0)
(0.1062981906720593 0 0)
(0.09908170159590517 0 0)
(0.08945084514615204 0 0)
(0.07754396943496902 0 0)
(0.06372521655859469 0 0)
(0.04848823802843136 0 0)
(0.03234593163710915 0 0)
(0.01575055898803986 0 0)
(-0.0009411336985298323 0 0)
(-0.01746900266435602 0 0)
(-0.03365683260334672 0 0)
(-0.04940528360121048 0 0)
(-0.06468891130860524 0 0)
(-0.07948779044327342 0 0)
(-0.09348524883667374 0 0)
(-0.1054075058903988 0 0)
(-0.1128553819637855 0 0)
(-0.1151305675220021 0 0)
(-0.1152547018935969 0 0)
(-0.1151526721070092 0 0)
(-0.1145882214821239 0 0)
(-0.1132037364559823 0 0)
(-0.1105218861453096 0 0)
(-0.1061032057454005 0 0)
(-0.0995895438843301 0 0)
(-0.09078018877209508 0 0)
(-0.07968043566913217 0 0)
(-0.06651507463134755 0 0)
(-0.05169231957268808 0 0)
(-0.03572295616158166 0 0)
(-0.01912362037123306 0 0)
(-0.002339830859322199 0 0)
(0.01429762533461634 0 0)
(0.03059354340457563 0 0)
(0.04649023071645924 0 0)
(0.06202379795014696 0 0)
(0.07718195677187721 0 0)
(0.09157436974987532 0 0)
(0.1038420167480659 0 0)
(0.1115661677938693 0 0)
(0.1140243531827211 0 0)
(0.1141997356110574 0 0)
(0.1140823807026025 0 0)
(0.1136408486013529 0 0)
(0.1124650450723229 0 0)
(0.1101676508810299 0 0)
(0.1063286671244311 0 0)
(0.1005790737447169 0 0)
(0.092653756929325 0 0)
(0.08244816192210953 0 0)
(0.07005111643102561 0 0)
(0.0557437518549372 0 0)
(0.03996276326841874 0 0)
(0.0232310404726652 0 0)
(0.006065523512495006 0 0)
(-0.01111286232164637 0 0)
(-0.0280350810543745 0 0)
(-0.04458833690927192 0 0)
(-0.06076408474184948 0 0)
(-0.07650689702103458 0 0)
(-0.09133369405710878 0 0)
(-0.103679597900266 0 0)
(-0.1110420842085361 0 0)
(-0.1131541739521121 0 0)
(-0.1132653414963339 0 0)
(-0.1131864640038129 0 0)
(-0.1127350599958266 0 0)
(-0.1116271794590631 0 0)
(-0.1094704050938276 0 0)
(-0.105886384770693 0 0)
(-0.1005280025496387 0 0)
(-0.09313114064611097 0 0)
(-0.08355843916545409 0 0)
(-0.07183651859500241 0 0)
(-0.0581704303690208 0 0)
(-0.04292264273385316 0 0)
(-0.02655858277574518 0 0)
(-0.009573013408331929 0 0)
(0.007589642102982345 0 0)
(0.02460820305030501 0 0)
(0.04132343725244046 0 0)
(0.05770000480389632 0 0)
(0.07366550639077124 0 0)
(0.08875660047927562 0 0)
(0.1015330355243463 0 0)
(0.1095598353709541 0 0)
(0.1121726326555017 0 0)
(0.1123883881747481 0 0)
(0.1122994514240252 0 0)
(0.1119638597459501 0 0)
(0.1110375179075301 0 0)
(0.1091964426362705 0 0)
(0.1060729670968779 0 0)
(0.1013201652269213 0 0)
(0.09464607360417999 0 0)
(0.08585851329315829 0 0)
(0.07490151253106327 0 0)
(0.06187798363115559 0 0)
(0.04705276326850932 0 0)
(0.03082671093658895 0 0)
(0.01367556010805028 0 0)
(-0.00393462549625345 0 0)
(-0.02162564611115891 0 0)
(-0.03914909191042419 0 0)
(-0.05636441182523867 0 0)
(-0.07309393113125946 0 0)
(-0.08873358445433605 0 0)
(-0.1016185651508228 0 0)
(-0.1092507958417067 0 0)
(-0.1114739603615698 0 0)
(-0.1116118513091525 0 0)
(-0.1115532088550711 0 0)
(-0.1111944262727911 0 0)
(-0.1102941166615322 0 0)
(-0.1085168026388245 0 0)
(-0.1055297037575296 0 0)
(-0.1010094694768054 0 0)
(-0.09468058527627231 0 0)
(-0.08635004058259066 0 0)
(-0.07594275024282089 0 0)
(-0.06352605456732248 0 0)
(-0.04931273420125723 0 0)
(-0.03363990058299116 0 0)
(-0.01692646583179743 0 0)
(0.0003895672364264688 0 0)
(0.01792619040695368 0 0)
(0.03541483436410278 0 0)
(0.05269122490345134 0 0)
(0.06956504788095806 0 0)
(0.08548940784499208 0 0)
(0.09898722685023159 0 0)
(0.1076004594688951 0 0)
(0.1105482211593849 0 0)
(0.1108328027680777 0 0)
(0.1107705281867655 0 0)
(0.1105192847445371 0 0)
(0.1097839906573244 0 0)
(0.1082849107131082 0 0)
(0.1056962918826552 0 0)
(0.1016982989932333 0 0)
(0.09599980451856907 0 0)
(0.08837298337390294 0 0)
(0.0786847935929233 0 0)
(0.06692358638429902 0 0)
(0.05321625009340739 0 0)
(0.03782578184758557 0 0)
(0.02111944026111425 0 0)
(0.003511270474371232 0 0)
(-0.01460265760534109 0 0)
(-0.03289356525352148 0 0)
(-0.05110078967123748 0 0)
(-0.06890943422093752 0 0)
(-0.08557437612989818 0 0)
(-0.09930111588627662 0 0)
(-0.1075013839754905 0 0)
(-0.1099846940823735 0 0)
(-0.1101717216400711 0 0)
(-0.1101298751314001 0 0)
(-0.1098453271426758 0 0)
(-0.1091105367235998 0 0)
(-0.1076301970315528 0 0)
(-0.1051069871949919 0 0)
(-0.1012417328420929 0 0)
(-0.09576356546879862 0 0)
(-0.08845681029004369 0 0)
(-0.0791909890260093 0 0)
(-0.06794533409413235 0 0)
(-0.05482029255511427 0 0)
(-0.04003395282976623 0 0)
(-0.02390242897572784 0 0)
(-0.006799127971302039 0 0)
(0.01090542836367865 0 0)
(0.02889843121250827 0 0)
(0.0469289266009364 0 0)
(0.06470456420828019 0 0)
(0.08159195935964696 0 0)
(0.09605938261172095 0 0)
(0.1055596492470336 0 0)
(0.1090502541102355 0 0)
(0.1094591282833535 0 0)
(0.1094156687349144 0 0)
(0.1092301353980028 0 0)
(0.108645285999464 0 0)
(0.1074173782132437 0 0)
(0.1052525199501522 0 0)
(0.101855781112996 0 0)
(0.09694589966596423 0 0)
(0.09028240303326292 0 0)
(0.08169081689477965 0 0)
(0.07108712521344324 0 0)
(0.05849859042394302 0 0)
(0.04407225629738001 0 0)
(0.02806179369983786 0 0)
(0.01079339362538165 0 0)
(-0.00737856658032563 0 0)
(-0.02611155892146799 0 0)
(-0.04508078550126626 0 0)
(-0.06387368123981298 0 0)
(-0.0816380429667114 0 0)
(-0.09647552613530909 0 0)
(-0.1056250238171404 0 0)
(-0.1086068207996598 0 0)
(-0.1088845771072255 0 0)
(-0.1088584704532808 0 0)
(-0.1086358886342887 0 0)
(-0.1080361170322963 0 0)
(-0.1067946111914249 0 0)
(-0.1046445295689856 0 0)
(-0.1013101836646339 0 0)
(-0.09653128326370727 0 0)
(-0.09008410569874786 0 0)
(-0.081806586460516 0 0)
(-0.07162055543028722 0 0)
(-0.05954605411671952 0 0)
(-0.04570640735516655 0 0)
(-0.03032168159966362 0 0)
(-0.01368395183133103 0 0)
(0.003885756257734962 0 0)
(0.02207977226776861 0 0)
(0.04060946692229924 0 0)
(0.05912317568253956 0 0)
(0.07694266458174244 0 0)
(0.09252826424703471 0 0)
(0.1032394129351885 0 0)
(0.1075784734881992 0 0)
(0.108210104451983 0 0)
(0.1081868050774098 0 0)
(0.1080544590242666 0 0)
(0.1075917634549446 0 0)
(0.1065838606522297 0 0)
(0.1047640494671877 0 0)
(0.1018604202906533 0 0)
(0.09760485465260123 0 0)
(0.09175454139194418 0 0)
(0.08411223562529856 0 0)
(0.07454774014368719 0 0)
(0.06301855502811211 0 0)
(0.04958233098859764 0 0)
(0.03439389355580515 0 0)
(0.01768773966883605 0 0)
(-0.0002477891245608564 0 0)
(-0.01909755368931966 0 0)
(-0.03852382597229746 0 0)
(-0.05807418287301522 0 0)
(-0.07685982657659389 0 0)
(-0.09296036096848408 0 0)
(-0.1034337819648356 0 0)
(-0.1072407629620579 0 0)
(-0.1076956317003105 0 0)
(-0.1076861860938886 0 0)
(-0.1075184148926321 0 0)
(-0.1070381659299355 0 0)
(-0.1060019590855429 0 0)
(-0.1041665875103332 0 0)
(-0.101276193762633 0 0)
(-0.09708325159872264 0 0)
(-0.09136487049739565 0 0)
(-0.08394293736395561 0 0)
(-0.07470279624855077 0 0)
(-0.06360773124903657 0 0)
(-0.05070836382834871 0 0)
(-0.03614370030454854 0 0)
(-0.02012736699444421 0 0)
(-0.002918952938611228 0 0)
(0.01520516964831152 0 0)
(0.03395557405616016 0 0)
(0.05296541807880009 0 0)
(0.07156586030672389 0 0)
(0.08828413317634318 0 0)
(0.100455397761196 0 0)
(0.1060075890196093 0 0)
(0.1070310959663697 0 0)
(0.1070383705187198 0 0)
(0.1069521800610438 0 0)
(0.1065947289738661 0 0)
(0.1057751089797825 0 0)
(0.1042478746572793 0 0)
(0.1017605008798787 0 0)
(0.09805865749841883 0 0)
(0.09290310779519331 0 0)
(0.0860855560524509 0 0)
(0.07744695864533718 0 0)
(0.066896434558863 0 0)
(0.05442459771567815 0 0)
(0.04010638031604308 0 0)
(0.02409482979994104 0 0)
(0.006608804609813912 0 0)
(-0.01208332567666506 0 0)
(-0.03166455409334958 0 0)
(-0.05168851727302982 0 0)
(-0.07129839092797356 0 0)
(-0.08865912944516643 0 0)
(-0.1007433106617604 0 0)
(-0.1057730551404855 0 0)
(-0.1065651899463675 0 0)
(-0.1065873044408228 0 0)
(-0.1064728574409284 0 0)
(-0.1061020030511261 0 0)
(-0.10524515102201 0 0)
(-0.1036761370835224 0 0)
(-0.101154980263629 0 0)
(-0.09744836387106902 0 0)
(-0.0923421876610425 0 0)
(-0.0856566592732738 0 0)
(-0.0772599123799123 0 0)
(-0.06707963384521715 0 0)
(-0.05511242468745502 0 0)
(-0.04142793433971924 0 0)
(-0.02616301854191456 0 0)
(-0.009505956317615617 0 0)
(0.008319471756816738 0 0)
(0.027052492526398 0 0)
(0.04634983058928233 0 0)
(0.0655830237083805 0 0)
(0.08340393254218149 0 0)
(0.09720521515879889 0 0)
(0.1043216492855618 0 0)
(0.1061185246316615 0 0)
(0.1062287619357053 0 0)
(0.1060762589548823 0 0)
(0.1057044357118178 0 0)
(0.1049122594217561 0 0)
(0.1035113173109865 0 0)
(0.1012788830109505 0 0)
(0.09798643686125175 0 0)
(0.09341371396439363 0 0)
(0.08735549964431182 0 0)
(0.0796315600190292 0 0)
(0.07010261330537108 0 0)
(0.05868803892153193 0 0)
(0.04537911489195053 0 0)
(0.03024286124536675 0 0)
(0.0134145979835383 0 0)
(-0.004905479626424891 0 0)
(-0.02443976497550562 0 0)
(-0.04475991057273172 0 0)
(-0.06501954284057697 0 0)
(-0.08350529193698591 0 0)
(-0.09724190812168181 0 0)
(-0.1039850673343523 0 0)
(-0.1052905866870319 0 0)
(-0.1052564009981122 0 0)
(-0.1049071747578164 0 0)
(-0.1042582002574046 0 0)
(-0.1032574511243675 0 0)
(-0.1016793169914169 0 0)
(-0.09933637795539921 0 0)
(-0.09603221194724007 0 0)
(-0.09156320354839408 0 0)
(-0.08573574748270325 0 0)
(-0.07838379052416719 0 0)
(-0.06938333434750785 0 0)
(-0.05866382304237289 0 0)
(-0.04621585129371048 0 0)
(-0.03209467007232966 0 0)
(-0.01641573956410952 0 0)
(0.0006525980723670158 0 0)
(0.01888286897791739 0 0)
(0.03795693307336202 0 0)
(0.05733244547234666 0 0)
(0.07572825026505779 0 0)
(0.09063108346368028 0 0)
(0.0996378031943789 0 0)
(0.102761127158256 0 0)
(0.1030664343313251 0 0)
(0.1028917158708821 0 0)
(0.1024532918485498 0 0)
(0.1016499537722349 0 0)
(0.1003296871022624 0 0)
(0.09834640419259685 0 0)
(0.09550657423268634 0 0)
(0.09157708959907492 0 0)
(0.08632547280498439 0 0)
(0.07954868351216214 0 0)
(0.07108453167668659 0 0)
(0.06081785659577755 0 0)
(0.04868865031619982 0 0)
(0.03469934437245974 0 0)
(0.0189156830976927 0 0)
(0.001472663459437277 0 0)
(-0.01739410690551627 0 0)
(-0.0372953019077804 0 0)
(-0.05754140174393568 0 0)
(-0.07662926833785712 0 0)
(-0.09178471444494785 0 0)
(-0.10050407701056 0 0)
(-0.1033024462708044 0 0)
(-0.1035596966145471 0 0)
(-0.1033417229382502 0 0)
(-0.1028514059095614 0 0)
(-0.1019645913216545 0 0)
(-0.1005465401724103 0 0)
(-0.09845921896164335 0 0)
(-0.09552394836536726 0 0)
(-0.09153308311576462 0 0)
(-0.08628227007490652 0 0)
(-0.07959199653502526 0 0)
(-0.07131981552508385 0 0)
(-0.06137106609974087 0 0)
(-0.04970701722368946 0 0)
(-0.03634695570383974 0 0)
(-0.02136390446038301 0 0)
(-0.004881326539723326 0 0)
(0.01290876006005398 0 0)
(0.03170043869414294 0 0)
(0.05099633625563327 0 0)
(0.06981388927019172 0 0)
(0.08606599550533957 0 0)
(0.09708799913959756 0 0)
(0.1019425868240089 0 0)
(0.1027765044359875 0 0)
(0.1027040717517066 0 0)
(0.1023695990171378 0 0)
(0.1016754069386586 0 0)
(0.1004697713627787 0 0)
(0.09863223421526204 0 0)
(0.09601420147042319 0 0)
(0.09242153524791544 0 0)
(0.08764188596875119 0 0)
(0.0814686837647233 0 0)
(0.07371560530012781 0 0)
(0.06423130308146262 0 0)
(0.05291523862938189 0 0)
(0.03972839628964079 0 0)
(0.02469643336781574 0 0)
(0.007914728837805878 0 0)
(-0.01042189453183822 0 0)
(-0.02996609109530269 0 0)
(-0.05013206045332727 0 0)
(-0.06977062917534438 0 0)
(-0.08649424383111061 0 0)
(-0.09735241657912157 0 0)
(-0.101775255630582 0 0)
(-0.1024876469174253 0 0)
(-0.1023826867990401 0 0)
(-0.1020345960086185 0 0)
(-0.1013073940918449 0 0)
(-0.1000617872605906 0 0)
(-0.09817834874630144 0 0)
(-0.09550631845187738 0 0)
(-0.09186667727032728 0 0)
(-0.08707693914130471 0 0)
(-0.08096380353472055 0 0)
(-0.0733704855666352 0 0)
(-0.06417098599709689 0 0)
(-0.05328719994364954 0 0)
(-0.04069938276985812 0 0)
(-0.02644689053075553 0 0)
(-0.01062378507887404 0 0)
(0.006608507458453572 0 0)
(0.02497977446657974 0 0)
(0.04406247059723827 0 0)
(0.06311004050836561 0 0)
(0.08046193498848489 0 0)
(0.09336523172786328 0 0)
(0.1001022982997503 0 0)
(0.1018764285154134 0 0)
(0.101943883932156 0 0)
(0.1017309240082134 0 0)
(0.1012028366751943 0 0)
(0.1001732840694858 0 0)
(0.09853551208068445 0 0)
(0.09615732817741952 0 0)
(0.09287029584493725 0 0)
(0.08848875226704721 0 0)
(0.08282591749780017 0 0)
(0.07569915497398452 0 0)
(0.06694024817606287 0 0)
(0.05641472545467256 0 0)
(0.04404109032361469 0 0)
(0.02980322073014065 0 0)
(0.01375732777614412 0 0)
(-0.003946924172691024 0 0)
(-0.02301714786050941 0 0)
(-0.04295941753063524 0 0)
(-0.06287944928110797 0 0)
(-0.080839057798481 0 0)
(-0.09376766716397933 0 0)
(-0.1000594828375762 0 0)
(-0.1015748950240141 0 0)
(-0.101597796898939 0 0)
(-0.1013854559441461 0 0)
(-0.1008291723797311 0 0)
(-0.09977256436129904 0 0)
(-0.09810385909109041 0 0)
(-0.09568737990598702 0 0)
(-0.09236155550618527 0 0)
(-0.08796121138994456 0 0)
(-0.08232818203758213 0 0)
(-0.0753118875540555 0 0)
(-0.06677751005809313 0 0)
(-0.05662276467678012 0 0)
(-0.04479342036292728 0 0)
(-0.03129163156145404 0 0)
(-0.0161774669274596 0 0)
(0.0004227868359651714 0 0)
(0.01828469492151983 0 0)
(0.03704666946043054 0 0)
(0.05611061398167334 0 0)
(0.07420608193562354 0 0)
(0.08881168180111175 0 0)
(0.09754928378016789 0 0)
(0.1006436625563368 0 0)
(0.1009968068816211 0 0)
(0.1009030127630127 0 0)
(0.1005425426550608 0 0)
(0.09970878939888539 0 0)
(0.09828880043182808 0 0)
(0.09615953992325305 0 0)
(0.09316876226779386 0 0)
(0.08914591843979298 0 0)
(0.08392165178472241 0 0)
(0.07732949980511063 0 0)
(0.06920599404904285 0 0)
(0.05940360034910509 0 0)
(0.04781200781701915 0 0)
(0.0343769175380105 0 0)
(0.01911180224757147 0 0)
(0.002115661605705465 0 0)
(-0.01638297549301314 0 0)
(-0.03597282913699682 0 0)
(-0.05593452306052261 0 0)
(-0.07476324716564352 0 0)
(-0.08959381217781189 0 0)
(-0.09791102608314528 0 0)
(-0.1005942699127479 0 0)
(-0.1008349844287071 0 0)
(-0.1007411633283087 0 0)
(-0.1003507495615232 0 0)
(-0.09949618479967146 0 0)
(-0.09805764594648979 0 0)
(-0.09590681677942189 0 0)
(-0.09288974205856555 0 0)
(-0.08885065525767645 0 0)
(-0.08364519806015254 0 0)
(-0.07713586627235865 0 0)
(-0.06919162260724247 0 0)
(-0.05970049265977392 0 0)
(-0.04858641028703539 0 0)
(-0.03582190137981765 0 0)
(-0.02143440758710242 0 0)
(-0.005511776550195691 0 0)
(0.01177222844521219 0 0)
(0.03011221541454859 0 0)
(0.04900980952262741 0 0)
(0.06752012468566242 0 0)
(0.08356173565057344 0 0)
(0.09430135227254653 0 0)
(0.09900665626991195 0 0)
(0.09987946420356772 0 0)
(0.0999331113025422 0 0)
(0.09970752951786202 0 0)
(0.09908273078819217 0 0)
(0.0978935840797336 0 0)
(0.09602519567061199 0 0)
(0.09333332474889075 0 0)
(0.08965491039556275 0 0)
(0.08483331464786328 0 0)
(0.0787190439918336 0 0)
(0.07116084274350047 0 0)
(0.06201103803902724 0 0)
(0.05114500327841282 0 0)
(0.03848209015236714 0 0)
(0.02400134525011279 0 0)
(0.007755627199863661 0 0)
(-0.01009313699345744 0 0)
(-0.02921088820945549 0 0)
(-0.04900933032515996 0 0)
(-0.0683407652551086 0 0)
(-0.08478163884310969 0 0)
(-0.0952316356663839 0 0)
(-0.09940109214339153 0 0)
(-0.1000990316942921 0 0)
(-0.1001081220901391 0 0)
(-0.09986008797734301 0 0)
(-0.09920864189474689 0 0)
(-0.09800241657443504 0 0)
(-0.09612069512735492 0 0)
(-0.09341365120397757 0 0)
(-0.08972716831795574 0 0)
(-0.08492319693379059 0 0)
(-0.07887550480588784 0 0)
(-0.0714617495960044 0 0)
(-0.0625699566863587 0 0)
(-0.05211402120761902 0 0)
(-0.04004769937253495 0 0)
(-0.02637285043229764 0 0)
(-0.0111438319875428 0 0)
(0.00551228953429665 0 0)
(0.02334825928807714 0 0)
(0.0419554754953303 0 0)
(0.06061195560112607 0 0)
(0.07769568721862936 0 0)
(0.09032615513432467 0 0)
(0.09683092960879326 0 0)
(0.09862270645816358 0 0)
(0.09879547523697017 0 0)
(0.09871174780820283 0 0)
(0.09828377553473577 0 0)
(0.09733370271016664 0 0)
(0.09573770204062491 0 0)
(0.09335399771182014 0 0)
(0.09002494760586954 0 0)
(0.08559744120707366 0 0)
(0.07993145209552856 0 0)
(0.07288962553962686 0 0)
(0.06433332022629347 0 0)
(0.0541350282072633 0 0)
(0.04219885319094507 0 0)
(0.02847865943360466 0 0)
(0.01299070874434365 0 0)
(-0.004158252783825694 0 0)
(-0.02270813470492362 0 0)
(-0.04218296760704821 0 0)
(-0.06170384415344805 0 0)
(-0.07935347481594937 0 0)
(-0.09193428805144986 0 0)
(-0.0978952727693352 0 0)
(-0.09939231101122943 0 0)
(-0.09946448277597982 0 0)
(-0.09935945690435523 0 0)
(-0.09889463416927781 0 0)
(-0.09791657372486305 0 0)
(-0.0963021633832733 0 0)
(-0.09390234138079655 0 0)
(-0.09056201345508751 0 0)
(-0.08614478435357568 0 0)
(-0.08053167256391329 0 0)
(-0.07360895176263857 0 0)
(-0.06526866132941359 0 0)
(-0.0554213598092641 0 0)
(-0.04400964439379507 0 0)
(-0.03101728925838204 0 0)
(-0.01647504234536347 0 0)
(-0.0004734077105921582 0 0)
(0.016799267644957 0 0)
(0.03500634354629507 0 0)
(0.05356988637683076 0 0)
(0.07128382164722205 0 0)
(0.08565157578471484 0 0)
(0.09413517247591209 0 0)
(0.0971897342250138 0 0)
(0.09757961436372929 0 0)
(0.09764445224945556 0 0)
(0.09738738712183392 0 0)
(0.09666801492162419 0 0)
(0.09533712767168007 0 0)
(0.093259489808921 0 0)
(0.09027612254767092 0 0)
(0.0862321809217461 0 0)
(0.0809929960337659 0 0)
(0.07443276980615356 0 0)
(0.06642306521126073 0 0)
(0.05683903116050132 0 0)
(0.04557775653563369 0 0)
(0.03257672105735031 0 0)
(0.0178278949250688 0 0)
(0.00139627327635991 0 0)
(-0.01653133640871106 0 0)
(-0.03557319741171472 0 0)
(-0.05502806756553055 0 0)
(-0.07343431034441492 0 0)
(-0.08794841964465724 0 0)
(-0.09594130034920817 0 0)
(-0.09853693665211924 0 0)
(-0.09879246662479622 0 0)
(-0.09881335615055262 0 0)
(-0.09851077983999774 0 0)
(-0.09775497692651469 0 0)
(-0.0964032441772486 0 0)
(-0.09431193457908922 0 0)
(-0.09132026344141114 0 0)
(-0.08728692222622052 0 0)
(-0.08209646373305372 0 0)
(-0.07564361503704249 0 0)
(-0.06782606970805415 0 0)
(-0.05855312244980728 0 0)
(-0.047759442861622 0 0)
(-0.03541638205399428 0 0)
(-0.02153840843311565 0 0)
(-0.006188396167633951 0 0)
(0.01049331190459028 0 0)
(0.02823015974261462 0 0)
(0.04655311150829908 0 0)
(0.0645747842277429 0 0)
(0.08031392340623948 0 0)
(0.09079321990571543 0 0)
(0.09536439223971981 0 0)
(0.09630593126338036 0 0)
(0.09646339665219468 0 0)
(0.09634129933593444 0 0)
(0.09584698997523154 0 0)
(0.09478548273882348 0 0)
(0.09301579714079666 0 0)
(0.09037854460807991 0 0)
(0.08671610697930952 0 0)
(0.08189364019332167 0 0)
(0.07579276001559847 0 0)
(0.06829656504543317 0 0)
(0.05928831138357764 0 0)
(0.0486634010101302 0 0)
(0.03634725420084164 0 0)
(0.02231260349127494 0 0)
(0.006593156665223461 0 0)
(-0.01068025718095007 0 0)
(-0.02920068941962812 0 0)
(-0.04840507485599407 0 0)
(-0.06720885594648005 0 0)
(-0.0832852474567651 0 0)
(-0.09344956626765209 0 0)
(-0.09744347663772257 0 0)
(-0.09818925425771291 0 0)
(-0.09825928296922101 0 0)
(-0.09809303531290361 0 0)
(-0.09754460043975795 0 0)
(-0.09644496273931626 0 0)
(-0.09465183730649494 0 0)
(-0.09199936962652842 0 0)
(-0.08833924305625057 0 0)
(-0.08355659223553198 0 0)
(-0.07755371839759639 0 0)
(-0.07023463725454077 0 0)
(-0.0615087140782264 0 0)
(-0.05130451769567371 0 0)
(-0.03958216354078031 0 0)
(-0.02634136603979672 0 0)
(-0.01162695399059474 0 0)
(0.004453137290472096 0 0)
(0.02167959538277497 0 0)
(0.03966779587159028 0 0)
(0.05772726765935077 0 0)
(0.07435397115899901 0 0)
(0.08676869913822723 0 0)
(0.09309728349881953 0 0)
(0.09496600405753722 0 0)
(0.0951440209540908 0 0)
(0.09519108534678161 0 0)
(0.09488475007084131 0 0)
(0.0940753107992246 0 0)
(0.0926095071886021 0 0)
(0.09032094771684919 0 0)
(0.0870404539764907 0 0)
(0.08262813758247824 0 0)
(0.07697226317238715 0 0)
(0.06996878275113394 0 0)
(0.06151045267607261 0 0)
(0.05149373328331394 0 0)
(0.03983567516673501 0 0)
(0.02649216414472277 0 0)
(0.01147353154359971 0 0)
(-0.005130319239771072 0 0)
(-0.023087152325365 0 0)
(-0.04194234620265448 0 0)
(-0.06084929691498674 0 0)
(-0.07799989231832238 0 0)
(-0.09030570286535419 0 0)
(-0.09607282309357172 0 0)
(-0.0975934265351997 0 0)
(-0.09764317036238881 0 0)
(-0.09764485427300881 0 0)
(-0.09727500731584406 0 0)
(-0.09641767109160725 0 0)
(-0.0949212629799504 0 0)
(-0.09261031990499584 0 0)
(-0.08932038384752361 0 0)
(-0.08492981478590461 0 0)
(-0.07934851817521948 0 0)
(-0.07249472142445543 0 0)
(-0.06428705131246795 0 0)
(-0.05465218652628535 0 0)
(-0.04353811379331623 0 0)
(-0.03092708951196858 0 0)
(-0.01684470621999686 0 0)
(-0.00137014088775753 0 0)
(0.01532604026092811 0 0)
(0.03291797535474409 0 0)
(0.05084661098221684 0 0)
(0.06800307547275182 0 0)
(0.08208546618760536 0 0)
(0.09038279740370096 0 0)
(0.09337098457928722 0 0)
(0.09382495723984575 0 0)
(0.09395055707719172 0 0)
(0.09379151366662264 0 0)
(0.09323186414657318 0 0)
(0.09207107038815381 0 0)
(0.09013616343166721 0 0)
(0.0872437376268735 0 0)
(0.08324058140206149 0 0)
(0.07801263308634769 0 0)
(0.07146588393052761 0 0)
(0.06351045527051961 0 0)
(0.05405796898252385 0 0)
(0.04302702221664782 0 0)
(0.03035763418423038 0 0)
(0.01603353249233513 0 0)
(0.0001057757217688128 0 0)
(-0.01725658513222857 0 0)
(-0.03567966653163641 0 0)
(-0.05448379929980007 0 0)
(-0.0723148589220355 0 0)
(-0.08650624260001309 0 0)
(-0.09431556142710744 0 0)
(-0.09679855647414048 0 0)
(-0.09712241938736335 0 0)
(-0.09713732067126701 0 0)
(-0.09690810079390394 0 0)
(-0.09627933137565316 0 0)
(-0.09508043080013878 0 0)
(-0.09312447252376511 0 0)
(-0.09022287835009395 0 0)
(-0.08623242300857403 0 0)
(-0.08105915620802721 0 0)
(-0.07463563536476105 0 0)
(-0.06690125683717064 0 0)
(-0.05779672865254822 0 0)
(-0.04726926708438893 0 0)
(-0.03528482078835904 0 0)
(-0.02184353202730977 0 0)
(-0.006992376829006194 0 0)
(0.009145310379958691 0 0)
(0.02630497583168359 0 0)
(0.04402038291552738 0 0)
(0.06143366228157906 0 0)
(0.07672128437986594 0 0)
(0.08708114850617218 0 0)
(0.09153659391358852 0 0)
(0.09258037753194388 0 0)
(0.09257645343859378 0 0)
(0.09256886764650588 0 0)
(0.09219571025353683 0 0)
(0.09132333039523424 0 0)
(0.08976105697596622 0 0)
(0.08729382710309448 0 0)
(0.08373154391524285 0 0)
(0.07893969214634181 0 0)
(0.0728293266209786 0 0)
(0.06533301673812485 0 0)
(0.05638827071338921 0 0)
(0.04593295912687647 0 0)
(0.03391015299291781 0 0)
(0.02028424383149683 0 0)
(0.005065212206644082 0 0)
(-0.01164847621204866 0 0)
(-0.02957696350513812 0 0)
(-0.04816639519219706 0 0)
(-0.06636549918042414 0 0)
(-0.08199621759622494 0 0)
(-0.09203921722359282 0 0)
(-0.09594853634450921 0 0)
(-0.09673370881675489 0 0)
(-0.09663236065370052 0 0)
(-0.09650405047875887 0 0)
(-0.09603197525259601 0 0)
(-0.09509625803035698 0 0)
(-0.09350278538207824 0 0)
(-0.09103144178496687 0 0)
(-0.08749172825323702 0 0)
(-0.08275373633831698 0 0)
(-0.07674244159853061 0 0)
(-0.06941900841044246 0 0)
(-0.06076077596172615 0 0)
(-0.05074590297254361 0 0)
(-0.03934910765885666 0 0)
(-0.02655248943330519 0 0)
(-0.01236568766548524 0 0)
(0.00314621339959385 0 0)
(0.01979743646005413 0 0)
(0.03720618495687416 0 0)
(0.0546923506146554 0 0)
(0.07084265388643593 0 0)
(0.08310942260597087 0 0)
(0.08945883611650911 0 0)
(0.09122295062856561 0 0)
(0.09136956004182908 0 0)
(0.09127057784800319 0 0)
(0.0909735595206649 0 0)
(0.0903126666927999 0 0)
(0.08909841116698107 0 0)
(0.08709596833652695 0 0)
(0.084060740128631 0 0)
(0.07979059548803687 0 0)
(0.07415163026372092 0 0)
(0.06707685171714235 0 0)
(0.05854654920241188 0 0)
(0.04855762580996034 0 0)
(0.03709646871010978 0 0)
(0.02413318203728313 0 0)
(0.009646518417106962 0 0)
(-0.006332964395262292 0 0)
(-0.02363853255207453 0 0)
(-0.04185532737782569 0 0)
(-0.06017350494271898 0 0)
(-0.07687008754614816 0 0)
(-0.089027654049661 0 0)
(-0.09490079907137518 0 0)
(-0.0963438090082243 0 0)
(-0.09639453522343909 0 0)
(-0.09616300018639529 0 0)
(-0.09570462935889354 0 0)
(-0.09489424957445775 0 0)
(-0.09358338261683546 0 0)
(-0.09155837709787176 0 0)
(-0.08857290310042412 0 0)
(-0.08440616303197264 0 0)
(-0.07890200787650023 0 0)
(-0.07198819271816595 0 0)
(-0.06367409066296237 0 0)
(-0.05401868263827543 0 0)
(-0.04308008558451957 0 0)
(-0.03087577805021905 0 0)
(-0.01738485074966796 0 0)
(-0.002590754687967755 0 0)
(0.01343325000875344 0 0)
(0.03040940588980977 0 0)
(0.04779053189375983 0 0)
(0.06449641279745881 0 0)
(0.07831585884686561 0 0)
(0.08677319952045966 0 0)
(0.08986993038061257 0 0)
(0.09035058880065996 0 0)
(0.09018105782459331 0 0)
(0.08986420665241954 0 0)
(0.08919221329894095 0 0)
(0.0880774630737268 0 0)
(0.08638519672585489 0 0)
(0.08390129521391466 0 0)
(0.08035948107301782 0 0)
(0.07548879225198298 0 0)
(0.06906451328789576 0 0)
(0.06095449444392412 0 0)
(0.05115912909346812 0 0)
(0.03983317132662888 0 0)
(0.02723835962316019 0 0)
(0.01354232268835702 0 0)
(-0.001333718743961836 0 0)
(-0.01789451493953608 0 0)
(-0.0350896372091711 0 0)
(-0.05583821326382261 0 0)
)
;

boundaryField
{
    inlet
    {
        type            zeroGradient;
    }
    outlet
    {
        type            velocityOutletNSCBCx;
        pInf            101325;
        gamma           1.4;
        etaAc           1;
        fieldInf        (-1 0 0);
        lInf            2.25;
        value           uniform (-0.06347088450494702 0 0);
    }
    frontAndBack
    {
        type            empty;
    }
}


// ************************************************************************* //
