/*--------------------------------*- C++ -*----------------------------------*\
| =========                 |                                                 |
| \\      /  F ield         | OpenFOAM: The Open Source CFD Toolbox           |
|  \\    /   O peration     | Version:  v2012                                 |
|   \\  /    A nd           | Website:  www.openfoam.com                      |
|    \\/     M anipulation  |                                                 |
\*---------------------------------------------------------------------------*/
FoamFile
{
    version     2.0;
    format      ascii;
    class       volVectorField;
    location    "0.0115";
    object      UMean;
}
// * * * * * * * * * * * * * * * * * * * * * * * * * * * * * * * * * * * * * //

dimensions      [0 1 -1 0 0 0 0];


internalField   nonuniform List<vector> 
1000
(
(0.00113379154923045 0 0)
(0.001083110180159914 0 0)
(0.00108348508916081 0 0)
(0.001052099659766963 0 0)
(0.001017900128161064 0 0)
(0.0009648708758922962 0 0)
(0.0009097896283458504 0 0)
(0.0008447574092554947 0 0)
(0.000778474858490345 0 0)
(0.0007064117313393695 0 0)
(0.00063250517874432 0 0)
(0.0005573219392641117 0 0)
(0.000482406654211097 0 0)
(0.0004084787030843922 0 0)
(0.0003367054973171506 0 0)
(0.0002687360045671709 0 0)
(0.0002057631958396538 0 0)
(0.0001492778252447365 0 0)
(0.0001001587372193939 0 0)
(5.943636316487441e-05 0 0)
(2.77106340512769e-05 0 0)
(5.590276722427169e-06 0 0)
(-6.468556291496456e-06 0 0)
(-8.287225312413779e-06 0 0)
(2.841504897783479e-07 0 0)
(1.897476945657553e-05 0 0)
(4.754744479984618e-05 0 0)
(8.536238801531416e-05 0 0)
(0.0001319263707920922 0 0)
(0.0001865563303581576 0 0)
(0.0002487493971654133 0 0)
(0.0003173187988011956 0 0)
(0.0003899440877870542 0 0)
(0.0004637503262533269 0 0)
(0.0005375883695109837 0 0)
(0.0006111499099911781 0 0)
(0.0006840150187051809 0 0)
(0.0007552279975702786 0 0)
(0.0008236250639960087 0 0)
(0.0008876586464363793 0 0)
(0.0009458990659239882 0 0)
(0.0009968755503953612 0 0)
(0.001039591269323731 0 0)
(0.001073132802835937 0 0)
(0.001097049048537503 0 0)
(0.001110895935198212 0 0)
(0.00111457686176063 0 0)
(0.001107970993695716 0 0)
(0.001091294470968355 0 0)
(0.001064737483099766 0 0)
(0.001028758852762282 0 0)
(0.0009836825901076574 0 0)
(0.0009299760160775611 0 0)
(0.000868187977799345 0 0)
(0.0007999079525964522 0 0)
(0.0007279342658912851 0 0)
(0.0006551097038088461 0 0)
(0.0005822513539304301 0 0)
(0.0005096279716554214 0 0)
(0.0004376032173048521 0 0)
(0.0003669135834354566 0 0)
(0.0002985717986038384 0 0)
(0.0002339060527936811 0 0)
(0.0001743519656730724 0 0)
(0.0001214199020608455 0 0)
(7.639225363817361e-05 0 0)
(4.038499898657716e-05 0 0)
(1.410808837782246e-05 0 0)
(-1.940500438155561e-06 0 0)
(-7.607102952753284e-06 0 0)
(-2.85668129294755e-06 0 0)
(1.213177780040821e-05 0 0)
(3.715931129073454e-05 0 0)
(7.190201250009546e-05 0 0)
(0.0001161285031390205 0 0)
(0.0001694580122366348 0 0)
(0.0002311723105326924 0 0)
(0.000299345016102394 0 0)
(0.0003708233104468365 0 0)
(0.0004429860360013213 0 0)
(0.0005151376808200368 0 0)
(0.0005870467790809248 0 0)
(0.0006584625258362948 0 0)
(0.0007285989841391584 0 0)
(0.000796694589368221 0 0)
(0.0008614106535243272 0 0)
(0.0009215497422682133 0 0)
(0.0009755105337099773 0 0)
(0.001022086552275711 0 0)
(0.001059922261859538 0 0)
(0.001088281324637614 0 0)
(0.001106405038456274 0 0)
(0.001114190049344164 0 0)
(0.001111430497616586 0 0)
(0.001098440103468078 0 0)
(0.001075267584456231 0 0)
(0.00104232605805968 0 0)
(0.000999656981950033 0 0)
(0.0009477330250126766 0 0)
(0.000887112099536322 0 0)
(0.0008198983692073195 0 0)
(0.0007491611678769917 0 0)
(0.000677760181922488 0 0)
(0.0006062787505430964 0 0)
(0.0005350302126397502 0 0)
(0.0004642052433703934 0 0)
(0.0003944393966793941 0 0)
(0.0003264681090072669 0 0)
(0.000261415163352514 0 0)
(0.000200477462733449 0 0)
(0.0001451086275878878 0 0)
(9.664032685501371e-05 0 0)
(5.645132760917201e-05 0 0)
(2.554074070611607e-05 0 0)
(4.784050798132839e-06 0 0)
(-5.447665572677418e-06 0 0)
(-4.891662671471302e-06 0 0)
(6.293095521580536e-06 0 0)
(2.801815610907001e-05 0 0)
(5.995840597372875e-05 0 0)
(0.000101985909669411 0 0)
(0.0001536689966838316 0 0)
(0.0002141822711495167 0 0)
(0.0002812557723016886 0 0)
(0.000351553473681564 0 0)
(0.0004224522600159158 0 0)
(0.0004933810937113168 0 0)
(0.0005640771784901308 0 0)
(0.0006344174470762162 0 0)
(0.000703689266659413 0 0)
(0.0007713570712492397 0 0)
(0.0008362191105609019 0 0)
(0.0008973260403011376 0 0)
(0.0009531393644262277 0 0)
(0.001002527515004234 0 0)
(0.0010439802241124 0 0)
(0.001076584664460837 0 0)
(0.001099262773834599 0 0)
(0.001111647567722247 0 0)
(0.001113269063345444 0 0)
(0.001104292208259876 0 0)
(0.001084647317953513 0 0)
(0.001054728090558558 0 0)
(0.001014548023116854 0 0)
(0.0009646489575065684 0 0)
(0.0009056434549606652 0 0)
(0.0008398048337111386 0 0)
(0.000770273215402294 0 0)
(0.0007000283565026608 0 0)
(0.0006296622546204449 0 0)
(0.0005595098521634336 0 0)
(0.000489652003832685 0 0)
(0.0004206720607597689 0 0)
(0.0003531075629354439 0 0)
(0.0002879722334744097 0 0)
(0.0002262342896675653 0 0)
(0.0001692673311762125 0 0)
(0.0001182845425684895 0 0)
(7.474266304313361e-05 0 0)
(3.973956716733955e-05 0 0)
(1.442649771717838e-05 0 0)
(-5.692109577028025e-07 0 0)
(-4.653271141426084e-06 0 0)
(2.229133591755803e-06 0 0)
(2.020373322805962e-05 0 0)
(4.899390655882647e-05 0 0)
(8.85354486962373e-05 0 0)
(0.00013827385705619 0 0)
(0.0001973180973943357 0 0)
(0.0002631570250215849 0 0)
(0.000332381191719353 0 0)
(0.0004022205390386172 0 0)
(0.0004721310095453104 0 0)
(0.0005418231580120378 0 0)
(0.0006112589385144204 0 0)
(0.0006797925884545892 0 0)
(0.0007470199700462705 0 0)
(0.0008118750096523566 0 0)
(0.0008735563581039643 0 0)
(0.0009306550698856025 0 0)
(0.0009821283076353235 0 0)
(0.001026465062911933 0 0)
(0.001062690583746941 0 0)
(0.001089535546557709 0 0)
(0.001106427472088628 0 0)
(0.001112596722938416 0 0)
(0.001107998570887869 0 0)
(0.001092322439059391 0 0)
(0.001065877552530448 0 0)
(0.00102859017441822 0 0)
(0.0009810495900217631 0 0)
(0.0009239002357068586 0 0)
(0.000859510959190764 0 0)
(0.0007911051881820283 0 0)
(0.0007218498947624317 0 0)
(0.0006524421379053197 0 0)
(0.0005832289102654983 0 0)
(0.0005142165052165739 0 0)
(0.0004459406872454057 0 0)
(0.0003788013634569032 0 0)
(0.0003137146608641246 0 0)
(0.0002514815922161826 0 0)
(0.0001933767656884939 0 0)
(0.0001404870829938203 0 0)
(9.426231173632242e-05 0 0)
(5.58063665735776e-05 0 0)
(2.643369280631133e-05 0 0)
(6.936907690747212e-06 0 0)
(-1.793734619398188e-06 0 0)
(5.301968076499349e-07 0 0)
(1.43149824598458e-05 0 0)
(3.943985624894019e-05 0 0)
(7.597199333526605e-05 0 0)
(0.0001233499708941107 0 0)
(0.000180643784404992 0 0)
(0.0002451803396713611 0 0)
(0.0003133943707569946 0 0)
(0.0003823144527355391 0 0)
(0.0004513307874174394 0 0)
(0.0005201530000495374 0 0)
(0.0005887882761051859 0 0)
(0.0006566597200117405 0 0)
(0.0007234527067482845 0 0)
(0.0007882117987826142 0 0)
(0.0008502561998033453 0 0)
(0.0009082935472826009 0 0)
(0.0009613789214614079 0 0)
(0.001008045935677478 0 0)
(0.0010473188936888 0 0)
(0.00107783462557279 0 0)
(0.00109888146699642 0 0)
(0.00110946659723291 0 0)
(0.001109325062266414 0 0)
(0.001097909314549071 0 0)
(0.001075349415702377 0 0)
(0.001041434855898601 0 0)
(0.0009966916876229955 0 0)
(0.0009417372733047175 0 0)
(0.0008789543985796405 0 0)
(0.0008116698551975005 0 0)
(0.0007433082747657319 0 0)
(0.0006747525438618446 0 0)
(0.0006063734496031051 0 0)
(0.0005381243632656287 0 0)
(0.000470494836853919 0 0)
(0.0004037837790536114 0 0)
(0.0003388281171539682 0 0)
(0.0002762903358066335 0 0)
(0.0002173569654873114 0 0)
(0.0001629877717826931 0 0)
(0.0001145934688560199 0 0)
(7.324221105147975e-05 0 0)
(4.032283091167959e-05 0 0)
(1.673659706956785e-05 0 0)
(3.579923871743634e-06 0 0)
(1.359629443097449e-06 0 0)
(1.074356025761567e-05 0 0)
(3.181836698202824e-05 0 0)
(6.484263057255312e-05 0 0)
(0.0001093439559511812 0 0)
(0.0001644633859146687 0 0)
(0.0002274792541141693 0 0)
(0.0002946777723091764 0 0)
(0.0003627632899804544 0 0)
(0.000430985188441186 0 0)
(0.0004990227775634998 0 0)
(0.0005669436773766759 0 0)
(0.0006341981648357861 0 0)
(0.0007005713415124456 0 0)
(0.0007651714659849899 0 0)
(0.0008274460424797903 0 0)
(0.0008861798052837978 0 0)
(0.000940542933599085 0 0)
(0.0009891157575193639 0 0)
(0.001030961735788692 0 0)
(0.001064677861614544 0 0)
(0.001089468445747165 0 0)
(0.001104192001602097 0 0)
(0.001108393601666361 0 0)
(0.001101320691797176 0 0)
(0.001082899548281109 0 0)
(0.001052754947242968 0 0)
(0.001011268034655832 0 0)
(0.0009589519531767808 0 0)
(0.0008980723612718416 0 0)
(0.0008319993593078936 0 0)
(0.0007644758648345235 0 0)
(0.0006966946013849728 0 0)
(0.0006290720181426142 0 0)
(0.0005615259043478747 0 0)
(0.0004945009676720092 0 0)
(0.0004282229657058215 0 0)
(0.0003634487824307624 0 0)
(0.0003007418045911092 0 0)
(0.0002411903761834766 0 0)
(0.0001856608215902976 0 0)
(0.0001354884369210092 0 0)
(9.170520990414157e-05 0 0)
(5.570638955102256e-05 0 0)
(2.846650405773121e-05 0 0)
(1.120373011790351e-05 0 0)
(4.612897341988907e-06 0 0)
(9.563724201817496e-06 0 0)
(2.637195416697163e-05 0 0)
(5.548298773570613e-05 0 0)
(9.661369708262719e-05 0 0)
(0.0001490486760684478 0 0)
(0.0002102125213496703 0 0)
(0.0002762819114444731 0 0)
(0.0003435860585769741 0 0)
(0.0004110630471495233 0 0)
(0.0004783915963744308 0 0)
(0.000545637800913998 0 0)
(0.0006123305607975509 0 0)
(0.0006782809345856386 0 0)
(0.0007427055431663141 0 0)
(0.0008051007610163886 0 0)
(0.000864375975894353 0 0)
(0.0009197519508844372 0 0)
(0.0009699120191113481 0 0)
(0.001013930857472515 0 0)
(0.001050436942353133 0 0)
(0.001078563148011473 0 0)
(0.001097094722519542 0 0)
(0.001105417416196071 0 0)
(0.001102624432371841 0 0)
(0.001088448235041917 0 0)
(0.001062344245369362 0 0)
(0.001024520491116451 0 0)
(0.0009753005493954413 0 0)
(0.0009167231577552756 0 0)
(0.0008520533484809107 0 0)
(0.0007853794245445991 0 0)
(0.0007183197069331931 0 0)
(0.0006514095275969466 0 0)
(0.0005845216704520282 0 0)
(0.000518078010905349 0 0)
(0.0004522274684594157 0 0)
(0.0003876766089758136 0 0)
(0.0003248879080682506 0 0)
(0.0002648837460380894 0 0)
(0.0002084228764868284 0 0)
(0.0001567890538450047 0 0)
(0.0001109388699372048 0 0)
(7.22755503333985e-05 0 0)
(4.177825238407379e-05 0 0)
(2.076909254844523e-05 0 0)
(1.0046312629692e-05 0 0)
(1.067145509965662e-05 0 0)
(2.312558626374182e-05 0 0)
(4.807076158910105e-05 0 0)
(8.540203708608843e-05 0 0)
(0.000134671639327217 0 0)
(0.0001935475828619261 0 0)
(0.0002582996903143345 0 0)
(0.0003248038891711988 0 0)
(0.0003915826679798858 0 0)
(0.0004582188433410753 0 0)
(0.0005248195813723126 0 0)
(0.0005909439051726268 0 0)
(0.0006564713101422014 0 0)
(0.0007206764217085713 0 0)
(0.0007831370536390637 0 0)
(0.0008428358137831458 0 0)
(0.0008990704338991897 0 0)
(0.0009505868777133636 0 0)
(0.0009964947906010377 0 0)
(0.001035448769411287 0 0)
(0.001066538339311054 0 0)
(0.001088502220250715 0 0)
(0.001100616146267275 0 0)
(0.00110188286344317 0 0)
(0.001091872343680185 0 0)
(0.001069911035913029 0 0)
(0.001036014176921862 0 0)
(0.0009903616364484932 0 0)
(0.0009345540192208782 0 0)
(0.000871716918533613 0 0)
(0.0008061481862499981 0 0)
(0.0007399560617546252 0 0)
(0.000673796111961719 0 0)
(0.0006076030794110447 0 0)
(0.0005417173126665505 0 0)
(0.0004762227530540013 0 0)
(0.0004117668217235568 0 0)
(0.0003488088624392311 0 0)
(0.0002882065640563092 0 0)
(0.0002307634283474118 0 0)
(0.0001777289575691544 0 0)
(0.0001300218454620792 0 0)
(8.895795112271284e-05 0 0)
(5.566287910278339e-05 0 0)
(3.143359643397146e-05 0 0)
(1.70341229589736e-05 0 0)
(1.361607462068475e-05 0 0)
(2.194859448574508e-05 0 0)
(4.273164640270613e-05 0 0)
(7.600933995919094e-05 0 0)
(0.0001217173312929774 0 0)
(0.000177787904220691 0 0)
(0.0002407243091392267 0 0)
(0.0003064473335578999 0 0)
(0.0003728189543042627 0 0)
(0.0004392261545731092 0 0)
(0.0005057370489661768 0 0)
(0.0005720902268979455 0 0)
(0.0006380048619056697 0 0)
(0.0007029127547053156 0 0)
(0.0007663136477690679 0 0)
(0.0008274336361686789 0 0)
(0.0008852535212313873 0 0)
(0.000938632787083068 0 0)
(0.0009868233558141077 0 0)
(0.001028099643883474 0 0)
(0.001061878870107649 0 0)
(0.001086754868666824 0 0)
(0.001102137170112788 0 0)
(0.001106657903817891 0 0)
(0.001099955231179375 0 0)
(0.001081295403357317 0 0)
(0.001050478181909629 0 0)
(0.001007410400894883 0 0)
(0.0009537129676950788 0 0)
(0.0008919269334326045 0 0)
(0.0008260210915072041 0 0)
(0.0007590559877368327 0 0)
(0.0006918518597950253 0 0)
(0.0006246663654236829 0 0)
(0.0005574658815132628 0 0)
(0.0004909337827592801 0 0)
(0.0004251522079882104 0 0)
(0.000360635757542732 0 0)
(0.0002983385413003855 0 0)
(0.0002388746082806063 0 0)
(0.0001832798595292509 0 0)
(0.0001328444085043763 0 0)
(8.861040640929507e-05 0 0)
(5.181484506892324e-05 0 0)
(2.37985100798858e-05 0 0)
(5.338919031229301e-06 0 0)
(-2.176562955659922e-06 0 0)
(1.907816181141224e-06 0 0)
(1.850699244835417e-05 0 0)
(4.791957362015096e-05 0 0)
(8.997854475633516e-05 0 0)
(0.0001433267466197602 0 0)
(0.000204702952009125 0 0)
(0.0002698982961565543 0 0)
(0.0003364115209964653 0 0)
(0.0004029213826182536 0 0)
(0.0004695083203692016 0 0)
(0.0005358063038816884 0 0)
(0.0006018515803982523 0 0)
(0.0006668060027361118 0 0)
(0.0007304858241594759 0 0)
(0.0007920355946345977 0 0)
(0.0008508753549052346 0 0)
(0.0009055723726613532 0 0)
(0.0009555144024034828 0 0)
(0.0009992985974426646 0 0)
(0.001035882678044637 0 0)
(0.001064196133681302 0 0)
(0.001083184340199646 0 0)
(0.001092106075239442 0 0)
(0.001089747452679964 0 0)
(0.001075633237450482 0 0)
(0.001049483773465076 0 0)
(0.001010989338020017 0 0)
(0.0009612464669709103 0 0)
(0.0009024956842643993 0 0)
(0.00083828204940831 0 0)
(0.0007722322743386196 0 0)
(0.0007059356822553361 0 0)
(0.0006395633296353716 0 0)
(0.0005732167945398869 0 0)
(0.0005073425838715037 0 0)
(0.000442190326955824 0 0)
(0.0003781576478072362 0 0)
(0.0003159121333017429 0 0)
(0.00025635584334046 0 0)
(0.0002001736914437441 0 0)
(0.0001483999380322477 0 0)
(0.0001025972611074121 0 0)
(6.347313209304914e-05 0 0)
(3.266619170913061e-05 0 0)
(1.098921474610701e-05 0 0)
(-1.423653644060725e-07 0 0)
(-1.065053995177704e-07 0 0)
(1.227758171110981e-05 0 0)
(3.73465178498952e-05 0 0)
(7.530525053441105e-05 0 0)
(0.0001250138030602787 0 0)
(0.0001840829574174505 0 0)
(0.000248139247755828 0 0)
(0.0003141053793407501 0 0)
(0.0003803039975115085 0 0)
(0.0004464977936667291 0 0)
(0.0005124536208670953 0 0)
(0.0005781405175408019 0 0)
(0.0006429987213901141 0 0)
(0.0007066222903697102 0 0)
(0.000768300039633339 0 0)
(0.0008275633725042976 0 0)
(0.000883215492134716 0 0)
(0.0009342906237059578 0 0)
(0.0009800091781369813 0 0)
(0.001018912965448403 0 0)
(0.001049976121980672 0 0)
(0.00107225291371745 0 0)
(0.001084708483791373 0 0)
(0.001086362097674543 0 0)
(0.001076447593763401 0 0)
(0.001054616629852742 0 0)
(0.001020546310362053 0 0)
(0.0009746262109201731 0 0)
(0.0009188749711422591 0 0)
(0.000856579580976791 0 0)
(0.0007912301753028689 0 0)
(0.0007255536483365447 0 0)
(0.0006597076246063337 0 0)
(0.0005939594536318034 0 0)
(0.0005284088529080299 0 0)
(0.0004637374042648543 0 0)
(0.0003998716387864795 0 0)
(0.0003376569635218673 0 0)
(0.0002776480462901612 0 0)
(0.000220984286062479 0 0)
(0.0001679682241792083 0 0)
(0.000120528414284408 0 0)
(7.93317200514778e-05 0 0)
(4.570943480312179e-05 0 0)
(2.095644843290979e-05 0 0)
(6.062211655581913e-06 0 0)
(2.174563648941801e-06 0 0)
(1.018846220213237e-05 0 0)
(3.073374875911695e-05 0 0)
(6.423084202066452e-05 0 0)
(0.0001099354176075417 0 0)
(0.0001659689037698075 0 0)
(0.0002285214724239801 0 0)
(0.0002935194449695762 0 0)
(0.0003592142617302853 0 0)
(0.0004249221539368304 0 0)
(0.0004903802745564966 0 0)
(0.0005555943755166495 0 0)
(0.0006201637994152742 0 0)
(0.0006836145630250246 0 0)
(0.000745317913169176 0 0)
(0.0008047120013438508 0 0)
(0.0008611045115551261 0 0)
(0.0009131598456785984 0 0)
(0.0009602103522852177 0 0)
(0.001001247859093602 0 0)
(0.001034646382996073 0 0)
(0.001059904843871836 0 0)
(0.001075603676174117 0 0)
(0.001081166495204424 0 0)
(0.001075189032239362 0 0)
(0.001057572812871778 0 0)
(0.001027757720203956 0 0)
(0.0009860432204422118 0 0)
(0.0009333908944058856 0 0)
(0.0008733860576225048 0 0)
(0.000808831946121453 0 0)
(0.0007436808002305942 0 0)
(0.0006783153301990663 0 0)
(0.0006131046764018277 0 0)
(0.0005477639507302848 0 0)
(0.0004834156324438744 0 0)
(0.0004197809722526493 0 0)
(0.0003575276394528639 0 0)
(0.0002971733244646664 0 0)
(0.0002398498427536479 0 0)
(0.0001860222860938859 0 0)
(0.0001367732371833959 0 0)
(9.387627552484141e-05 0 0)
(5.768347684410635e-05 0 0)
(2.987060401830944e-05 0 0)
(1.157761496409538e-05 0 0)
(3.728500777429484e-06 0 0)
(7.42003608966554e-06 0 0)
(2.344261688285783e-05 0 0)
(5.230240469350804e-05 0 0)
(9.377816705429699e-05 0 0)
(0.0001462574491997694 0 0)
(0.000206708889169721 0 0)
(0.0002706706916856641 0 0)
(0.0003356325539594368 0 0)
(0.0004007986196660574 0 0)
(0.0004657660652409604 0 0)
(0.0005302585103626369 0 0)
(0.0005945221747001969 0 0)
(0.0006577673136519931 0 0)
(0.0007193473298641498 0 0)
(0.0007789001293468425 0 0)
(0.0008355880797038478 0 0)
(0.0008887492433785104 0 0)
(0.0009366380480084827 0 0)
(0.0009796474929166536 0 0)
(0.001015212175135608 0 0)
(0.001043034169082284 0 0)
(0.001061890468298563 0 0)
(0.001070853914653909 0 0)
(0.001068808599819625 0 0)
(0.001055301521143729 0 0)
(0.001029693932835916 0 0)
(0.0009921823419324211 0 0)
(0.0009431529856920374 0 0)
(0.0008854418242039754 0 0)
(0.0008225356115789707 0 0)
(0.0007574719211129391 0 0)
(0.0006926082931976199 0 0)
(0.0006278527270889653 0 0)
(0.0005628093783648973 0 0)
(0.0004987602456797999 0 0)
(0.0004352506422448964 0 0)
(0.0003730186888270886 0 0)
(0.000312400659284684 0 0)
(0.0002543695580510916 0 0)
(0.0001998691153902857 0 0)
(0.0001490881611510752 0 0)
(0.0001043920324385755 0 0)
(6.605517154428131e-05 0 0)
(3.525298683926058e-05 0 0)
(1.371727944832244e-05 0 0)
(2.106837133675185e-06 0 0)
(1.673208547534504e-06 0 0)
(1.312947260256836e-05 0 0)
(3.73366815182551e-05 0 0)
(7.419415231515044e-05 0 0)
(0.0001229635968295206 0 0)
(0.0001804781367829976 0 0)
(0.0002434688251701021 0 0)
(0.0003072723895642932 0 0)
(0.0003719073899432376 0 0)
(0.0004363524949355492 0 0)
(0.0005002903714904813 0 0)
(0.0005640484472744524 0 0)
(0.0006268748301424212 0 0)
(0.0006884063283466656 0 0)
(0.0007479843961437529 0 0)
(0.0008049077172794005 0 0)
(0.000858736886739461 0 0)
(0.000907730166594816 0 0)
(0.0009519555003224132 0 0)
(0.0009897976966497207 0 0)
(0.001019773707585882 0 0)
(0.001041508826865863 0 0)
(0.001053782668543412 0 0)
(0.001055482860631502 0 0)
(0.001045811237934137 0 0)
(0.001024404110084834 0 0)
(0.0009909714407439658 0 0)
(0.0009459595277807949 0 0)
(0.0008908515289333204 0 0)
(0.0008297469656857782 0 0)
(0.0007653763517813109 0 0)
(0.0007006102764670922 0 0)
(0.0006362538296265667 0 0)
(0.0005718411602043392 0 0)
(0.0005075766939686561 0 0)
(0.0004444019367498521 0 0)
(0.000382260474413304 0 0)
(0.000321460626192653 0 0)
(0.0002629098371483978 0 0)
(0.0002074854514458961 0 0)
(0.0001558585260087991 0 0)
(0.0001090089679510941 0 0)
(6.890984162345817e-05 0 0)
(3.531129006882176e-05 0 0)
(1.065476639741084e-05 0 0)
(-4.419937359936964e-06 0 0)
(-9.05587965520703e-06 0 0)
(-1.973090791937349e-06 0 0)
(1.760950010008449e-05 0 0)
(4.976050583553702e-05 0 0)
(9.428793432507747e-05 0 0)
(0.0001487299112173031 0 0)
(0.0002097390508604786 0 0)
(0.0002730041575084197 0 0)
(0.0003365084115384661 0 0)
(0.0004004604920390417 0 0)
(0.000464172135121237 0 0)
(0.0005267962572401138 0 0)
(0.0005896776349982003 0 0)
(0.0006509179126406515 0 0)
(0.0007104390211722126 0 0)
(0.0007675761628741291 0 0)
(0.0008217058064764456 0 0)
(0.0008719885225271081 0 0)
(0.0009168566832234598 0 0)
(0.0009566240082707182 0 0)
(0.0009889192562779904 0 0)
(0.001013193776283805 0 0)
(0.001028549811171093 0 0)
(0.001033660045328501 0 0)
(0.001027899061010745 0 0)
(0.001010524076491403 0 0)
(0.0009812885315208211 0 0)
(0.0009402148886539337 0 0)
(0.0008885405625892672 0 0)
(0.0008291693893533313 0 0)
(0.0007660060677296157 0 0)
(0.0007014359531251662 0 0)
(0.0006371641616465164 0 0)
(0.0005733054915286601 0 0)
(0.0005089600570441444 0 0)
(0.0004462573352954102 0 0)
(0.0003838908721274862 0 0)
(0.0003230759588056436 0 0)
(0.0002641122512146548 0 0)
(0.0002078229501355384 0 0)
(0.0001554420911073031 0 0)
(0.0001067568607704838 0 0)
(6.470106807555668e-05 0 0)
(2.909876191790378e-05 0 0)
(1.218010142949947e-06 0 0)
(-1.733272125203306e-05 0 0)
(-2.552271027898583e-05 0 0)
(-2.280195953197479e-05 0 0)
(-7.894812034318443e-06 0 0)
(1.959163305227564e-05 0 0)
(5.953791076126509e-05 0 0)
(0.0001105763000354743 0 0)
(0.0001690170048383747 0 0)
(0.000231437022229833 0 0)
(0.0002943507871427004 0 0)
(0.0003571296356434856 0 0)
(0.000420477340620927 0 0)
(0.0004827150932708837 0 0)
(0.000544920655051208 0 0)
(0.0006058287889808354 0 0)
(0.0006654156561825045 0 0)
(0.0007225878985122002 0 0)
(0.0007770243578024549 0 0)
(0.0008280561669756752 0 0)
(0.0008739763205232897 0 0)
(0.0009152027596177159 0 0)
(0.0009496513287063834 0 0)
(0.0009759935643534475 0 0)
(0.0009941667991549548 0 0)
(0.001002898203318451 0 0)
(0.001000601834919497 0 0)
(0.0009871614055435992 0 0)
(0.0009620470254091587 0 0)
(0.0009250157522102401 0 0)
(0.0008769840937909621 0 0)
(0.0008199301225932882 0 0)
(0.0007580661528754506 0 0)
(0.0006940972540514999 0 0)
(0.0006296978228012215 0 0)
(0.0005660628677185716 0 0)
(0.000502457176455197 0 0)
(0.0004389912923127042 0 0)
(0.0003771251698388176 0 0)
(0.0003162110266094709 0 0)
(0.0002568832802535729 0 0)
(0.0001999584958408857 0 0)
(0.0001465379477971508 0 0)
(9.679895514213563e-05 0 0)
(5.268006619728399e-05 0 0)
(1.493394083738535e-05 0 0)
(-1.57717482842252e-05 0 0)
(-3.750262897548555e-05 0 0)
(-4.92373585176004e-05 0 0)
(-5.088741876671072e-05 0 0)
(-4.037024909509508e-05 0 0)
(-1.753615977287395e-05 0 0)
(1.774907893178002e-05 0 0)
(6.467710001604523e-05 0 0)
(0.0001205656915548161 0 0)
(0.0001812550788162263 0 0)
(0.0002436709779853876 0 0)
(0.0003057374998340335 0 0)
(0.0003680891744400104 0 0)
(0.0004304301511249302 0 0)
(0.0004912184216566263 0 0)
(0.0005525536013740981 0 0)
(0.0006116980172514544 0 0)
(0.0006689661157593901 0 0)
(0.0007236288514706294 0 0)
(0.0007750488608875593 0 0)
(0.0008223503790928465 0 0)
(0.0008641074284129217 0 0)
(0.0009005379056162998 0 0)
(0.000929384643166449 0 0)
(0.0009500185313627039 0 0)
(0.0009616166819592352 0 0)
(0.0009630433496622636 0 0)
(0.0009533075862997054 0 0)
(0.0009322318125958664 0 0)
(0.0008992961354806242 0 0)
(0.0008549765184198594 0 0)
(0.0008009599649736429 0 0)
(0.0007403962939981292 0 0)
(0.0006772569804598562 0 0)
(0.0006133677547530263 0 0)
(0.0005492153444950928 0 0)
(0.0004862671497175997 0 0)
(0.0004225048293717204 0 0)
(0.000361084517907112 0 0)
(0.0002997482443229885 0 0)
(0.0002403810413930267 0 0)
(0.0001828694241981539 0 0)
(0.0001284142507616934 0 0)
(7.796341072036172e-05 0 0)
(3.151227478509184e-05 0 0)
(-8.130299826674219e-06 0 0)
(-4.088840315710831e-05 0 0)
(-6.628548419123289e-05 0 0)
(-8.153142618262075e-05 0 0)
(-8.641924508551314e-05 0 0)
(-8.067174621249925e-05 0 0)
(-6.248733868317481e-05 0 0)
(-3.192011369918473e-05 0 0)
(1.058394292279176e-05 0 0)
(6.328830348188183e-05 0 0)
(0.0001219948086306892 0 0)
(0.0001835250582308242 0 0)
(0.0002452951039686387 0 0)
(0.0003064379856604078 0 0)
(0.0003684255627193703 0 0)
(0.000429113416900015 0 0)
(0.0004893190506152299 0 0)
(0.0005485480375698364 0 0)
(0.0006058635654944743 0 0)
(0.0006606093631117122 0 0)
(0.0007123892764474056 0 0)
(0.0007606135313030221 0 0)
(0.0008033491464987663 0 0)
(0.0008414746682031142 0 0)
(0.000872343817033743 0 0)
(0.0008951138006801321 0 0)
(0.0009095801714903197 0 0)
(0.000914639876639667 0 0)
(0.0009082229175626853 0 0)
(0.0008910760902030494 0 0)
(0.0008622727012671108 0 0)
(0.000821898489457138 0 0)
(0.0007710357037482171 0 0)
(0.0007126618135505533 0 0)
(0.0006501445039374504 0 0)
(0.0005867458102900559 0 0)
(0.0005228927863288677 0 0)
(0.0004593514919007664 0 0)
(0.0003967453822013905 0 0)
(0.0003336876099005929 0 0)
(0.0002734238790097434 0 0)
(0.0002135746998336057 0 0)
(0.0001556564767537355 0 0)
(0.0001003668005186976 0 0)
(4.880598082583335e-05 0 0)
(1.170336359454451e-06 0 0)
(-4.063839634485182e-05 0 0)
(-7.591849181266511e-05 0 0)
(-0.0001036448899589707 0 0)
(-0.0001227544005755024 0 0)
(-0.0001312920594522406 0 0)
(-0.0001296134220732579 0 0)
(-0.0001160823185810547 0 0)
(-9.010580256036909e-05 0 0)
(-5.216273817352362e-05 0 0)
(-3.380218614346516e-06 0 0)
(5.326131639272151e-05 0 0)
(0.0001130972962652196 0 0)
(0.0001745722872309002 0 0)
(0.0002355338460314507 0 0)
(0.000295765699049467 0 0)
(0.0003570708490988239 0 0)
(0.0004156122212277087 0 0)
(0.0004757605844621215 0 0)
(0.0005323742870778401 0 0)
(0.0005873728056120482 0 0)
(0.0006393377134278876 0 0)
(0.0006879822951176471 0 0)
(0.0007323262463822955 0 0)
(0.000770828376422062 0 0)
(0.0008038379334327854 0 0)
(0.0008293596835111894 0 0)
(0.0008457355446050922 0 0)
(0.0008537941581757668 0 0)
(0.0008517937606408934 0 0)
(0.0008378704230508102 0 0)
(0.0008130512729207709 0 0)
(0.0007767011097029475 0 0)
(0.0007293654770384317 0 0)
(0.0006734499527548371 0 0)
(0.0006121079608964916 0 0)
(0.000549272343330839 0 0)
(0.0004857664608607911 0 0)
(0.0004219227089992817 0 0)
(0.0003592661747084629 0 0)
(0.0002967184425308632 0 0)
(0.0002353441326352176 0 0)
(0.0001757952812573884 0 0)
(0.0001175887994008469 0 0)
(6.157860384787571e-05 0 0)
(8.858212247503021e-06 0 0)
(-3.957664477717815e-05 0 0)
(-8.378272438353429e-05 0 0)
(-0.0001209914120041983 0 0)
(-0.000151318155440612 0 0)
(-0.0001737207591802802 0 0)
(-0.0001860241541047892 0 0)
(-0.0001876114454230646 0 0)
(-0.0001790008419305497 0 0)
(-0.0001577755703180809 0 0)
(-0.0001243223756903053 0 0)
(-7.972126258365051e-05 0 0)
(-2.621948830231375e-05 0 0)
(3.249523036286583e-05 0 0)
(9.234302842865415e-05 0 0)
(0.0001532303591853448 0 0)
(0.0002133905820486781 0 0)
(0.0002726959968442338 0 0)
(0.0003330611362162063 0 0)
(0.0003897895160384108 0 0)
(0.0004486600695202563 0 0)
(0.0005029435404570372 0 0)
(0.0005550799296892336 0 0)
(0.0006040712816448792 0 0)
(0.000649207074209406 0 0)
(0.0006891801276271178 0 0)
(0.0007236525140023383 0 0)
(0.0007510640563717594 0 0)
(0.0007706957970338553 0 0)
(0.0007804967258523371 0 0)
(0.0007817997589868729 0 0)
(0.0007721957309454391 0 0)
(0.0007508013978868632 0 0)
(0.0007185015081597401 0 0)
(0.0006749468217188706 0 0)
(0.0006217253289118116 0 0)
(0.0005624025393420592 0 0)
(0.0004995782889461236 0 0)
(0.0004368508723040336 0 0)
(0.0003737541040782048 0 0)
(0.0003096812376235066 0 0)
(0.0002481521931961098 0 0)
(0.0001851418591801715 0 0)
(0.0001269685721433769 0 0)
(6.745772711455033e-05 0 0)
(1.128251093691015e-05 0 0)
(-4.236906264899567e-05 0 0)
(-9.234552596343247e-05 0 0)
(-0.0001372086447287401 0 0)
(-0.0001774438775811582 0 0)
(-0.0002101228354485416 0 0)
(-0.0002350087986112221 0 0)
(-0.0002517335299440423 0 0)
(-0.0002570250239188909 0 0)
(-0.0002514414503079166 0 0)
(-0.0002354280211325183 0 0)
(-0.0002067513907431878 0 0)
(-0.0001663262298945624 0 0)
(-0.0001163176742969793 0 0)
(-5.98728550302686e-05 0 0)
(-6.698375215608213e-07 0 0)
(5.873666767307736e-05 0 0)
(0.0001188446433570826 0 0)
(0.0001783486858493169 0 0)
(0.0002361134468998061 0 0)
(0.0002958862980115222 0 0)
(0.0003503856735718862 0 0)
(0.0004082630827873053 0 0)
(0.0004589589209715255 0 0)
(0.0005083300587180833 0 0)
(0.000553693895315696 0 0)
(0.0005953637519282606 0 0)
(0.0006306709765712676 0 0)
(0.0006603990492523035 0 0)
(0.0006821372713327242 0 0)
(0.0006955577571435976 0 0)
(0.0006988893137603221 0 0)
(0.0006930404226609806 0 0)
(0.0006752957695423318 0 0)
(0.0006466309711146904 0 0)
(0.0006071662278882554 0 0)
(0.000557156097562547 0 0)
(0.0004996090232157243 0 0)
(0.0004383078198774916 0 0)
(0.0003750518586438092 0 0)
(0.0003124031567795598 0 0)
(0.0002499818021998204 0 0)
(0.0001860878493299824 0 0)
(0.0001252680068438059 0 0)
(6.243652112535975e-05 0 0)
(7.703756086624996e-06 0 0)
(-5.249299334244773e-05 0 0)
(-0.00010615367214881 0 0)
(-0.0001573533985677115 0 0)
(-0.0002026206948399399 0 0)
(-0.0002449312623023642 0 0)
(-0.0002797959995118002 0 0)
(-0.0003082942666977876 0 0)
(-0.0003274458693930729 0 0)
(-0.0003382663996252054 0 0)
(-0.0003352517340785783 0 0)
(-0.0003225618677883363 0 0)
(-0.0002990075554080267 0 0)
)
;

boundaryField
{
    inlet
    {
        type            calculated;
        value           uniform (0.00113379154923045 0 0);
    }
    outlet
    {
        type            calculated;
        value           uniform (-0.0002815094382001638 0 0);
    }
    frontAndBack
    {
        type            empty;
    }
}


// ************************************************************************* //
