/*--------------------------------*- C++ -*----------------------------------*\
| =========                 |                                                 |
| \\      /  F ield         | OpenFOAM: The Open Source CFD Toolbox           |
|  \\    /   O peration     | Version:  v2012                                 |
|   \\  /    A nd           | Website:  www.openfoam.com                      |
|    \\/     M anipulation  |                                                 |
\*---------------------------------------------------------------------------*/
FoamFile
{
    version     2.0;
    format      ascii;
    class       volVectorField;
    location    "0.001";
    object      U;
}
// * * * * * * * * * * * * * * * * * * * * * * * * * * * * * * * * * * * * * //

dimensions      [0 1 -1 0 0 0 0];


internalField   nonuniform List<vector> 
1000
(
(-0.002808636615550098 0 0)
(-0.03445321046182817 0 0)
(-0.04264177289150453 0 0)
(-0.05777253128076587 0 0)
(-0.07162212281243367 0 0)
(-0.08455007792847473 0 0)
(-0.09560854265682518 0 0)
(-0.1050781512862949 0 0)
(-0.1132280925028554 0 0)
(-0.1186952904437314 0 0)
(-0.1201183833330153 0 0)
(-0.119955755465526 0 0)
(-0.1191584121391868 0 0)
(-0.1166494812958146 0 0)
(-0.1118203918775079 0 0)
(-0.1044679428007931 0 0)
(-0.09487406322928563 0 0)
(-0.08347641264397483 0 0)
(-0.07064104073297199 0 0)
(-0.05661602381944565 0 0)
(-0.04159719478927625 0 0)
(-0.0258027976726861 0 0)
(-0.009504858210991778 0 0)
(0.006987360504352293 0 0)
(0.02335712324481096 0 0)
(0.039289872379195 0 0)
(0.05448870445415589 0 0)
(0.06875179027404228 0 0)
(0.08206641626249167 0 0)
(0.09450897412573389 0 0)
(0.105698647753418 0 0)
(0.1139817486180203 0 0)
(0.1174876126410001 0 0)
(0.1178747859499264 0 0)
(0.1177927835657516 0 0)
(0.11708474297899 0 0)
(0.1152887986137474 0 0)
(0.111728652510511 0 0)
(0.105918740509115 0 0)
(0.09762413033687645 0 0)
(0.08694387812588865 0 0)
(0.07424887506952693 0 0)
(0.06003612520247344 0 0)
(0.04477935315544771 0 0)
(0.02884795997257616 0 0)
(0.01251333119222323 0 0)
(-0.003988551975656533 0 0)
(-0.02040032349872984 0 0)
(-0.03645086922773362 0 0)
(-0.0519293140716446 0 0)
(-0.06675234877273192 0 0)
(-0.08092272260253135 0 0)
(-0.09427390360366251 0 0)
(-0.1058808062916843 0 0)
(-0.1136103434696143 0 0)
(-0.116281829674533 0 0)
(-0.1164858382660209 0 0)
(-0.1163177037485021 0 0)
(-0.1157198153682959 0 0)
(-0.1141337497155661 0 0)
(-0.111075487220915 0 0)
(-0.1060616602400126 0 0)
(-0.098759417584355 0 0)
(-0.08906045341523615 0 0)
(-0.07711793408349304 0 0)
(-0.06330604419430809 0 0)
(-0.04812080510780821 0 0)
(-0.03207056004043987 0 0)
(-0.01559870994252846 0 0)
(0.0009497942960432081 0 0)
(0.0173285265698541 0 0)
(0.03337311687999447 0 0)
(0.04898962811726757 0 0)
(0.06415323803033851 0 0)
(0.07885148444652804 0 0)
(0.09280399088188249 0 0)
(0.1048232273715305 0 0)
(0.1125526966319232 0 0)
(0.11506251428909 0 0)
(0.1152290192312495 0 0)
(0.1151448437431273 0 0)
(0.1146087675195605 0 0)
(0.1132807448478404 0 0)
(0.1106786951100532 0 0)
(0.1063614372937799 0 0)
(0.0999591361965633 0 0)
(0.09125275919006064 0 0)
(0.08022536038533744 0 0)
(0.06708150786205375 0 0)
(0.05221776089965863 0 0)
(0.03614530392131772 0 0)
(0.01939178260680105 0 0)
(0.002419945924183111 0 0)
(-0.01442058122658813 0 0)
(-0.0309186437672144 0 0)
(-0.04700737046516058 0 0)
(-0.06271866008589487 0 0)
(-0.07802523964555906 0 0)
(-0.0924782561837476 0 0)
(-0.1045985117170271 0 0)
(-0.1119386225431776 0 0)
(-0.1141043491772186 0 0)
(-0.1142363644861055 0 0)
(-0.1140985737786155 0 0)
(-0.1136167211800481 0 0)
(-0.1123714685281726 0 0)
(-0.1099761528538146 0 0)
(-0.1060159584103193 0 0)
(-0.1001352753924014 0 0)
(-0.09208908391191134 0 0)
(-0.08179596574640785 0 0)
(-0.0693657384418284 0 0)
(-0.05509347432218444 0 0)
(-0.03941939219601548 0 0)
(-0.02285851099555729 0 0)
(-0.005910892092173001 0 0)
(0.01102272350942121 0 0)
(0.02769058709286126 0 0)
(0.04399215320655694 0 0)
(0.05993118022202371 0 0)
(0.07547985678711602 0 0)
(0.09022974832019875 0 0)
(0.1027566417955532 0 0)
(0.1105803234583577 0 0)
(0.1130425694987222 0 0)
(0.1132129919438551 0 0)
(0.1131456300436052 0 0)
(0.1127243054427621 0 0)
(0.1116626821524404 0 0)
(0.1095622399234693 0 0)
(0.1060335889105423 0 0)
(0.1007099013056646 0 0)
(0.09330426024850866 0 0)
(0.08366279529468222 0 0)
(0.07181849114302025 0 0)
(0.05804644885308249 0 0)
(0.04294850597599773 0 0)
(0.02763559264954385 0 0)
(0.01402515026821097 0 0)
(0.004684354208625702 0 0)
(0.0007662045993098392 0 0)
(4.141687857223858e-05 0 0)
(4.825012511710942e-07 0 0)
(8.098099384096362e-10 0 0)
(-6.26619475390673e-13 0 0)
(-9.051170200086681e-13 0 0)
(-7.223530063531486e-13 0 0)
(-5.918072823133886e-13 0 0)
(-3.046066894260335e-13 0 0)
(-3.742310755805626e-13 0 0)
(-1.479518205783693e-13 0 0)
(6.96243861545086e-14 0 0)
(2.87200592887355e-13 0 0)
(3.742310755805331e-13 0 0)
(2.872005928873804e-13 0 0)
(2.697944963487821e-13 0 0)
(3.394188825032831e-13 0 0)
(2.523883998101455e-13 0 0)
(1.131396275011042e-13 0 0)
(-8.703048269310588e-15 0 0)
(-6.96243861545243e-14 0 0)
(-3.481219307725186e-14 0 0)
(-1.218426757704063e-13 0 0)
(-1.914670619249161e-13 0 0)
(-6.962438615452427e-14 0 0)
(-5.221828961588691e-14 0 0)
(3.481219307726423e-14 0 0)
(-3.895849267841161e-27 0 0)
(-4.351524134656599e-14 0 0)
(-7.832743442383019e-14 0 0)
(-3.481219307725906e-14 0 0)
(7.832743442384955e-14 0 0)
(1.218426757704033e-13 0 0)
(1.305457240397305e-13 0 0)
(3.481219307725415e-14 0 0)
(8.703048269314702e-14 0 0)
(1.21842675770407e-13 0 0)
(2.088731584635477e-13 0 0)
(3.74231075580523e-13 0 0)
(3.655280273112438e-13 0 0)
(4.960737513509437e-13 0 0)
(3.220127859646386e-13 0 0)
(2.959036411567103e-13 0 0)
(2.262792550021711e-13 0 0)
(3.568249790418908e-13 0 0)
(3.133097376953465e-13 0 0)
(2.175762067328391e-13 0 0)
(2.088731584635753e-13 0 0)
(1.740609653862695e-13 0 0)
(-4.351524134658268e-14 0 0)
(-2.902562301734531e-27 0 0)
(-1.218426757704127e-13 0 0)
(-2.523883998101402e-13 0 0)
(-3.220127859646383e-13 0 0)
(-2.349823032714919e-13 0 0)
(-1.740609653863032e-13 0 0)
(3.892950570468908e-27 0 0)
(-2.001701101942328e-13 0 0)
(-8.703048269315401e-14 0 0)
(-2.523883998101408e-13 0 0)
(-1.740609653862908e-13 0 0)
(-1.566548688476718e-13 0 0)
(-6.092133788519116e-14 0 0)
(-1.13139627501096e-13 0 0)
(-1.305457240397098e-13 0 0)
(-8.703048269314344e-14 0 0)
(-5.221828961588284e-14 0 0)
(2.610914480794224e-14 0 0)
(-6.962438615452049e-14 0 0)
(-5.221828961589051e-14 0 0)
(-4.351524134657983e-14 0 0)
(7.83274344238315e-14 0 0)
(1.479518205783682e-13 0 0)
(1.305457240397181e-13 0 0)
(1.653579171169826e-13 0 0)
(1.653579171169736e-13 0 0)
(3.046066894260111e-13 0 0)
(3.220127859646562e-13 0 0)
(3.133097376953179e-13 0 0)
(2.349823032715006e-13 0 0)
(1.740609653862881e-13 0 0)
(2.088731584635643e-13 0 0)
(2.436853515408285e-13 0 0)
(1.740609653862942e-13 0 0)
(1.74060965386307e-13 0 0)
(6.962438615452153e-14 0 0)
(4.351524134657901e-14 0 0)
(-4.351524134657301e-14 0 0)
(-1.653579171169927e-13 0 0)
(-1.479518205783477e-13 0 0)
(-1.392487723090466e-13 0 0)
(-1.566548688476581e-13 0 0)
(-2.088731584635667e-13 0 0)
(-1.56654868847657e-13 0 0)
(-2.00170110194235e-13 0 0)
(-7.832743442382585e-14 0 0)
(-1.305457240397084e-13 0 0)
(-1.131396275011066e-13 0 0)
(2.610914480793919e-14 0 0)
(4.351524134657494e-14 0 0)
(-2.860048073613383e-27 0 0)
(1.740609653861485e-14 0 0)
(1.740609653862361e-14 0 0)
(1.653579171169732e-13 0 0)
(2.349823032715006e-13 0 0)
(2.001701101942442e-13 0 0)
(2.784975446180921e-13 0 0)
(2.959036411566789e-13 0 0)
(1.827640136556045e-13 0 0)
(9.573353096246785e-14 0 0)
(8.703048269315016e-14 0 0)
(-6.092133788520169e-14 0 0)
(8.70304826931395e-15 0 0)
(1.044365792317821e-13 0 0)
(1.479518205783491e-13 0 0)
(7.832743442383496e-14 0 0)
(-2.610914480794681e-14 0 0)
(1.63679778266923e-27 0 0)
(1.044365792317875e-13 0 0)
(3.481219307726253e-14 0 0)
(-1.740609653862578e-14 0 0)
(7.026442429498727e-27 0 0)
(-6.962438615452108e-14 0 0)
(-6.092133788520209e-14 0 0)
(-1.740609653863089e-13 0 0)
(-2.175762067328824e-13 0 0)
(-6.092133788521915e-14 0 0)
(8.703048269314602e-14 0 0)
(1.392487723090135e-13 0 0)
(1.131396275010969e-13 0 0)
(2.262792550021788e-13 0 0)
(2.784975446180713e-13 0 0)
(2.523883998101147e-13 0 0)
(1.653579171169739e-13 0 0)
(1.653579171169779e-13 0 0)
(2.523883998101162e-13 0 0)
(3.39418882503269e-13 0 0)
(4.3515241346573e-13 0 0)
(3.829341238498608e-13 0 0)
(4.873707030815908e-13 0 0)
(5.308859444282011e-13 0 0)
(4.090432686578114e-13 0 0)
(1.91467061924925e-13 0 0)
(1.044365792317639e-13 0 0)
(-2.61091448079548e-14 0 0)
(-1.131396275010963e-13 0 0)
(-1.131396275011034e-13 0 0)
(-6.092133788520557e-14 0 0)
(2.610914480794284e-14 0 0)
(6.092133788519426e-14 0 0)
(1.479518205783506e-13 0 0)
(2.262792550021725e-13 0 0)
(2.610914480793615e-14 0 0)
(1.305457240397034e-13 0 0)
(-4.351524134659393e-14 0 0)
(6.962438615449341e-14 0 0)
(2.088731584635731e-13 0 0)
(3.307158342339274e-13 0 0)
(2.959036411567189e-13 0 0)
(1.914670619249189e-13 0 0)
(2.697944963487722e-13 0 0)
(2.088731584635277e-13 0 0)
(1.218426757704046e-13 0 0)
(4.35152413465569e-14 0 0)
(1.479518205783577e-13 0 0)
(2.436853515407927e-13 0 0)
(2.001701101942541e-13 0 0)
(1.479518205783392e-13 0 0)
(2.088731584635466e-13 0 0)
(2.088731584635433e-13 0 0)
(-8.628455843705126e-27 0 0)
(1.39248772309025e-13 0 0)
(1.740609653863117e-13 0 0)
(3.307158342339465e-13 0 0)
(2.959036411567233e-13 0 0)
(2.436853515408165e-13 0 0)
(2.349823032714963e-13 0 0)
(2.872005928873732e-13 0 0)
(3.046066894260369e-13 0 0)
(2.088731584635235e-13 0 0)
(3.307158342339927e-13 0 0)
(3.220127859646272e-13 0 0)
(2.262792550022041e-13 0 0)
(1.740609653862836e-13 0 0)
(1.740609653862857e-14 0 0)
(6.962438615451043e-14 0 0)
(1.740609653862352e-14 0 0)
(8.703048269313364e-14 0 0)
(3.481219307725248e-14 0 0)
(-1.740609653863485e-14 0 0)
(-1.740609653863099e-14 0 0)
(3.48121930772654e-14 0 0)
(-8.703048269312164e-15 0 0)
(2.610914480794839e-14 0 0)
(2.610914480794816e-14 0 0)
(1.740609653863063e-14 0 0)
(3.481219307725781e-14 0 0)
(2.001701101942393e-13 0 0)
(2.175762067328805e-13 0 0)
(2.088731584635412e-13 0 0)
(1.740609653863056e-13 0 0)
(1.827640136556057e-13 0 0)
(6.092133788520339e-14 0 0)
(9.573353096246303e-14 0 0)
(3.48121930772585e-14 0 0)
(1.47951820578353e-13 0 0)
(1.653579171169818e-13 0 0)
(1.740609653862953e-14 0 0)
(-2.610914480794934e-14 0 0)
(-6.098859270488765e-27 0 0)
(2.610914480793364e-14 0 0)
(-8.703048269327915e-15 0 0)
(4.35152413465668e-14 0 0)
(4.351524134657055e-14 0 0)
(1.218426757704081e-13 0 0)
(5.22182896158859e-14 0 0)
(1.740609653862343e-14 0 0)
(5.221828961588828e-14 0 0)
(-1.109621353965433e-26 0 0)
(2.610914480793925e-14 0 0)
(2.610914480794224e-14 0 0)
(6.092133788519497e-14 0 0)
(-1.7406096538632e-14 0 0)
(-1.740609653863551e-14 0 0)
(-1.740609653863452e-14 0 0)
(6.962438615451126e-14 0 0)
(2.175762067328641e-13 0 0)
(1.827640136556106e-13 0 0)
(1.653579171169766e-13 0 0)
(2.610914480794263e-13 0 0)
(2.610914480794561e-13 0 0)
(2.872005928873838e-13 0 0)
(2.349823032714817e-13 0 0)
(1.653579171169808e-13 0 0)
(1.740609653863052e-13 0 0)
(1.305457240397265e-13 0 0)
(5.221828961589077e-14 0 0)
(2.610914480793877e-14 0 0)
(-1.827640136556153e-13 0 0)
(-1.653579171169885e-13 0 0)
(-1.914670619249128e-13 0 0)
(-6.092133788519962e-14 0 0)
(1.740609653863394e-14 0 0)
(1.827640136556168e-13 0 0)
(2.523883998101332e-13 0 0)
(3.046066894260099e-13 0 0)
(3.04606689426014e-13 0 0)
(1.91467061924927e-13 0 0)
(3.481219307725775e-13 0 0)
(4.264493651964288e-13 0 0)
(3.829341238498672e-13 0 0)
(2.523883998101253e-13 0 0)
(2.001701101942428e-13 0 0)
(8.703048269313584e-14 0 0)
(-1.151362596120889e-26 0 0)
(-6.092133788521697e-14 0 0)
(2.610914480794029e-14 0 0)
(6.092133788520046e-14 0 0)
(-8.703048269315099e-15 0 0)
(-8.703048269312469e-15 0 0)
(-1.392487723090376e-13 0 0)
(-2.872005928873621e-13 0 0)
(-2.784975446180709e-13 0 0)
(-3.481219307726011e-13 0 0)
(-1.827640136555929e-13 0 0)
(-2.697944963487671e-13 0 0)
(-3.742310755805648e-13 0 0)
(-4.612615582736858e-13 0 0)
(-4.525585100043579e-13 0 0)
(-3.481219307726012e-13 0 0)
(-2.52388399810125e-13 0 0)
(-2.088731584635555e-13 0 0)
(-2.610914480794165e-13 0 0)
(-1.566548688476808e-13 0 0)
(-2.349823032714782e-13 0 0)
(-3.48121930772585e-13 0 0)
(-3.742310755805291e-13 0 0)
(-3.829341238498576e-13 0 0)
(-3.829341238498239e-13 0 0)
(-5.569950892361399e-13 0 0)
(-6.440255719292748e-13 0 0)
(-7.745712959690562e-13 0 0)
(-7.571651994303742e-13 0 0)
(-7.22353006353111e-13 0 0)
(-5.395889926975107e-13 0 0)
(-5.395889926975295e-13 0 0)
(-4.873707030815959e-13 0 0)
(-4.351524134657283e-13 0 0)
(-4.351524134657168e-13 0 0)
(-5.221828961589373e-13 0 0)
(-6.266194753906286e-13 0 0)
(-4.960737513509499e-13 0 0)
(-4.264493651964235e-13 0 0)
(-4.264493651964241e-13 0 0)
(-3.916371721191691e-13 0 0)
(-3.916371721191614e-13 0 0)
(-1.827640136556075e-13 0 0)
(-2.262792550022045e-13 0 0)
(6.962438615451231e-14 0 0)
(1.392487723090357e-13 0 0)
(2.262792550021808e-13 0 0)
(2.523883998101228e-13 0 0)
(4.177463169271086e-13 0 0)
(3.742310755805445e-13 0 0)
(4.003402203884681e-13 0 0)
(3.742310755805671e-13 0 0)
(2.959036411566926e-13 0 0)
(3.568249790419083e-13 0 0)
(4.26449365196409e-13 0 0)
(3.394188825032956e-13 0 0)
(1.914670619249257e-13 0 0)
(6.962438615451177e-14 0 0)
(-6.962438615452162e-14 0 0)
(-1.305457240397355e-13 0 0)
(-1.74060965386291e-13 0 0)
(-3.742310755805204e-13 0 0)
(-3.829341238498504e-13 0 0)
(-4.17746316927121e-13 0 0)
(-4.264493651964158e-13 0 0)
(-4.264493651964038e-13 0 0)
(-4.264493651964056e-13 0 0)
(-3.82934123849878e-13 0 0)
(-3.916371721191558e-13 0 0)
(-4.003402203884723e-13 0 0)
(-3.829341238498408e-13 0 0)
(-3.742310755805395e-13 0 0)
(-2.610914480794354e-13 0 0)
(-3.655280273112177e-13 0 0)
(-3.568249790419332e-13 0 0)
(-2.523883998101312e-13 0 0)
(-6.092133788519034e-14 0 0)
(-1.305457240397163e-13 0 0)
(-1.392487723090361e-13 0 0)
(-6.092133788520184e-14 0 0)
(9.573353096246437e-14 0 0)
(6.962438615452431e-14 0 0)
(-8.703048269314139e-15 0 0)
(-2.610914480794559e-14 0 0)
(1.459011010525566e-27 0 0)
(8.703048269318158e-15 0 0)
(4.351524134657853e-14 0 0)
(3.481219307726026e-14 0 0)
(1.740609653863171e-14 0 0)
(4.351524134657754e-14 0 0)
(5.221828961589815e-14 0 0)
(1.218426757704101e-13 0 0)
(1.91467061924912e-13 0 0)
(1.218426757704097e-13 0 0)
(-2.610914480795149e-14 0 0)
(-1.218426757704067e-13 0 0)
(-6.0921337885202e-14 0 0)
(2.610914480795088e-14 0 0)
(2.610914480794685e-14 0 0)
(5.221828961588124e-14 0 0)
(1.740609653862804e-13 0 0)
(2.175762067328699e-13 0 0)
(1.566548688476649e-13 0 0)
(9.573353096244871e-14 0 0)
(1.30545724039724e-13 0 0)
(5.221828961589141e-14 0 0)
(5.221828961589774e-14 0 0)
(-1.044365792317743e-13 0 0)
(-2.175762067328514e-13 0 0)
(-1.131396275010872e-13 0 0)
(1.827640136556316e-13 0 0)
(3.307158342339612e-13 0 0)
(2.9590364115672e-13 0 0)
(4.003402203884986e-13 0 0)
(4.699646065430171e-13 0 0)
(5.047767996202681e-13 0 0)
(4.786676548122828e-13 0 0)
(6.092133788520495e-13 0 0)
(4.960737513509473e-13 0 0)
(3.742310755804965e-13 0 0)
(3.394188825032739e-13 0 0)
(2.436853515408095e-13 0 0)
(5.22182896158809e-14 0 0)
(-1.044365792317905e-13 0 0)
(-1.914670619249231e-13 0 0)
(-8.703048269315088e-14 0 0)
(-1.392487723090383e-13 0 0)
(-2.26279255002171e-13 0 0)
(-1.56654868847673e-13 0 0)
(-6.092133788520456e-14 0 0)
(1.740609653863112e-14 0 0)
(1.044365792317807e-13 0 0)
(3.829341238498348e-13 0 0)
(4.525585100043923e-13 0 0)
(4.177463169271171e-13 0 0)
(3.220127859646145e-13 0 0)
(3.046066894260162e-13 0 0)
(3.046066894260158e-13 0 0)
(4.090432686577951e-13 0 0)
(4.438554617350546e-13 0 0)
(5.482920409667913e-13 0 0)
(5.918072823134087e-13 0 0)
(6.092133788520384e-13 0 0)
(5.482920409667887e-13 0 0)
(4.525585100043737e-13 0 0)
(3.394188825032732e-13 0 0)
(3.220127859646591e-13 0 0)
(2.697944963487605e-13 0 0)
(2.610914480794234e-13 0 0)
(2.262792550021975e-13 0 0)
(1.653579171169902e-13 0 0)
(1.218426757703963e-13 0 0)
(1.914670619249212e-13 0 0)
(2.175762067328719e-13 0 0)
(1.827640136556045e-13 0 0)
(1.479518205783401e-13 0 0)
(2.523883998100875e-13 0 0)
(4.525585100043739e-13 0 0)
(5.656981375054467e-13 0 0)
(5.656981375054197e-13 0 0)
(5.047767996202469e-13 0 0)
(4.438554617350677e-13 0 0)
(4.177463169271116e-13 0 0)
(3.394188825032919e-13 0 0)
(2.784975446180472e-13 0 0)
(1.653579171169739e-13 0 0)
(5.221828961587781e-14 0 0)
(4.351524134656389e-14 0 0)
(1.653579171169917e-13 0 0)
(1.827640136555911e-13 0 0)
(2.697944963487499e-13 0 0)
(3.220127859646434e-13 0 0)
(2.784975446180455e-13 0 0)
(2.175762067328717e-13 0 0)
(1.479518205783449e-13 0 0)
(1.479518205783533e-13 0 0)
(4.351524134656741e-14 0 0)
(1.044365792317709e-13 0 0)
(8.70304826930821e-15 0 0)
(-1.740609653863615e-14 0 0)
(-8.703048269314701e-14 0 0)
(-4.351524134658235e-14 0 0)
(-4.351524134657476e-14 0 0)
(-3.481219307725732e-14 0 0)
(7.832743442383522e-14 0 0)
(5.221828961588896e-14 0 0)
(6.962438615451823e-14 0 0)
(-2.610914480794746e-14 0 0)
(1.392487723090364e-13 0 0)
(1.305457240397251e-13 0 0)
(1.305457240397254e-13 0 0)
(8.703048269313994e-14 0 0)
(1.740609653863026e-13 0 0)
(2.872005928873754e-13 0 0)
(9.573353096246676e-14 0 0)
(2.610914480794239e-14 0 0)
(3.481219307725709e-14 0 0)
(9.573353096245941e-14 0 0)
(1.392487723090372e-13 0 0)
(1.044365792317689e-13 0 0)
(8.703048269314288e-14 0 0)
(1.131396275010837e-13 0 0)
(1.827640136556201e-13 0 0)
(9.573353096246485e-14 0 0)
(8.703048269313581e-14 0 0)
(1.044365792317773e-13 0 0)
(6.092133788520447e-14 0 0)
(8.703048269314145e-14 0 0)
(1.740609653862137e-14 0 0)
(4.351524134656526e-14 0 0)
(-3.481219307726231e-14 0 0)
(-7.832743442383509e-14 0 0)
(-1.566548688476524e-13 0 0)
(-1.827640136556133e-13 0 0)
(-1.566548688476557e-13 0 0)
(-2.175762067328712e-13 0 0)
(-3.046066894260113e-13 0 0)
(-2.175762067328514e-13 0 0)
(-8.703048269314519e-14 0 0)
(-1.827640136556072e-13 0 0)
(-1.827640136555994e-13 0 0)
(-1.218426757704119e-13 0 0)
(-1.479518205783492e-13 0 0)
(-1.044365792317793e-13 0 0)
(-5.221828961588369e-14 0 0)
(-7.832743442383083e-14 0 0)
(-6.96243861545231e-14 0 0)
(-3.481219307725959e-14 0 0)
(-1.566548688476612e-13 0 0)
(-1.47951820578359e-13 0 0)
(-2.262792550021949e-13 0 0)
(-1.479518205783584e-13 0 0)
(-5.221828961588603e-14 0 0)
(2.610914480794057e-14 0 0)
(2.610914480794297e-14 0 0)
(5.22182896158853e-14 0 0)
(2.610914480793831e-14 0 0)
(1.740609653862721e-14 0 0)
(5.221828961588795e-14 0 0)
(5.221828961589024e-14 0 0)
(-2.610914480794424e-14 0 0)
(-2.610914480793857e-14 0 0)
(3.481219307726255e-14 0 0)
(6.092133788521244e-14 0 0)
(5.22182896158966e-14 0 0)
(1.740609653863488e-14 0 0)
(4.35152413465804e-14 0 0)
(3.481219307726628e-14 0 0)
(-6.962438615451721e-14 0 0)
(-2.262792550021749e-13 0 0)
(-2.001701101942447e-13 0 0)
(-2.001701101942445e-13 0 0)
(-8.703048269313697e-14 0 0)
(-7.832743442383084e-14 0 0)
(7.832743442383288e-14 0 0)
(1.305457240397231e-13 0 0)
(1.566548688476747e-13 0 0)
(6.962438615450961e-14 0 0)
(6.092133788521204e-14 0 0)
(-6.962438615451367e-14 0 0)
(-1.305457240397106e-13 0 0)
(-1.305457240397145e-13 0 0)
(-9.573353096245225e-14 0 0)
(-8.703048269314065e-14 0 0)
(-2.088731584635439e-13 0 0)
(-2.872005928873786e-13 0 0)
(-1.653579171169776e-13 0 0)
(-9.57335309624507e-14 0 0)
(-2.088731584635353e-13 0 0)
(-3.394188825032961e-13 0 0)
(-2.872005928873873e-13 0 0)
(-2.349823032715044e-13 0 0)
(-2.436853515408094e-13 0 0)
(-3.046066894259896e-13 0 0)
(-3.48121930772609e-13 0 0)
(-1.827640136556107e-13 0 0)
(-1.566548688476497e-13 0 0)
(-2.610914480794292e-14 0 0)
(-7.832743442383163e-14 0 0)
(8.703048269320146e-15 0 0)
(3.481219307726537e-14 0 0)
(3.481219307725952e-14 0 0)
(2.610914480794565e-14 0 0)
(9.573353096247187e-14 0 0)
(3.481219307725762e-14 0 0)
(-6.962438615452283e-14 0 0)
(4.351524134657564e-14 0 0)
(1.566548688476706e-13 0 0)
(2.436853515408325e-13 0 0)
(1.740609653862886e-13 0 0)
(1.044365792317846e-13 0 0)
(7.8327434423835e-14 0 0)
(1.218426757704038e-13 0 0)
(1.479518205783719e-13 0 0)
(1.131396275010935e-13 0 0)
(8.703048269315156e-14 0 0)
(1.827640136556247e-13 0 0)
(2.95903641156695e-13 0 0)
(1.218426757704139e-13 0 0)
(1.740609653863012e-14 0 0)
(8.703048269316046e-14 0 0)
(9.573353096247303e-14 0 0)
(-6.96243861545073e-14 0 0)
(-1.218426757704094e-13 0 0)
(-1.566548688476649e-13 0 0)
(-1.305457240397208e-13 0 0)
(-9.573353096247639e-14 0 0)
(-1.218426757704118e-13 0 0)
(-9.573353096246303e-14 0 0)
(-5.221828961588016e-14 0 0)
(-1.218426757703796e-13 0 0)
(-2.001701101942423e-13 0 0)
(-1.827640136556001e-13 0 0)
(-6.962438615451155e-14 0 0)
(-1.914670619249217e-13 0 0)
(-2.262792550021846e-13 0 0)
(-2.872005928873849e-13 0 0)
(-1.827640136555956e-13 0 0)
(-1.305457240396999e-13 0 0)
(-1.479518205783473e-13 0 0)
(-1.827640136556233e-13 0 0)
(-1.218426757704017e-13 0 0)
(6.96243861545152e-14 0 0)
(1.044365792317793e-13 0 0)
(-1.740609653863128e-14 0 0)
(-9.573353096246625e-14 0 0)
(-6.092133788520116e-14 0 0)
(-7.83274344238382e-14 0 0)
(-6.092133788520163e-14 0 0)
(3.481219307726529e-14 0 0)
(-3.481219307724758e-14 0 0)
(-4.351524134656562e-14 0 0)
(-1.131396275010847e-13 0 0)
(-1.131396275010805e-13 0 0)
(-2.001701101942251e-13 0 0)
(-2.523883998101184e-13 0 0)
(-1.653579171169794e-13 0 0)
(-1.131396275010706e-13 0 0)
(-1.740609653862981e-13 0 0)
(-3.133097376953285e-13 0 0)
(-1.914670619249239e-13 0 0)
(-1.131396275010942e-13 0 0)
(-1.218426757703988e-13 0 0)
(-4.351524134657603e-14 0 0)
(-1.305457240397211e-13 0 0)
(-1.044365792317734e-13 0 0)
(-6.962438615451522e-14 0 0)
(-1.218426757704024e-13 0 0)
(-1.653579171169858e-13 0 0)
(-2.088731584635579e-13 0 0)
(-2.262792550021644e-13 0 0)
(-3.046066894260008e-13 0 0)
(-3.13309737695347e-13 0 0)
(-4.0904326865775e-13 0 0)
(-4.786676548123154e-13 0 0)
(-3.568249790419072e-13 0 0)
(-2.697944963487587e-13 0 0)
(-3.481219307725964e-13 0 0)
(-3.568249790418716e-13 0 0)
(-3.046066894260332e-13 0 0)
(-2.523883998101188e-13 0 0)
(-3.046066894259991e-13 0 0)
(-2.52388399810135e-13 0 0)
(-2.175762067328726e-13 0 0)
(-3.046066894260142e-13 0 0)
(-2.523883998101311e-13 0 0)
(-3.568249790418969e-13 0 0)
(-4.003402203884578e-13 0 0)
(-3.829341238498881e-13 0 0)
(-2.523883998100993e-13 0 0)
(-2.697944963487551e-13 0 0)
(-3.13309737695331e-13 0 0)
(-3.481219307725917e-13 0 0)
(-3.220127859646624e-13 0 0)
(-2.610914480794128e-13 0 0)
(-3.133097376953621e-13 0 0)
(-2.610914480794232e-13 0 0)
(-1.653579171169763e-13 0 0)
(-8.703048269314648e-14 0 0)
(-3.481219307726088e-14 0 0)
(-7.832743442383858e-14 0 0)
(-3.48121930772644e-14 0 0)
(-6.962438615451849e-14 0 0)
(-9.573353096245927e-14 0 0)
(-1.566548688476845e-13 0 0)
(-1.740609653862749e-13 0 0)
(-1.566548688476651e-13 0 0)
(-1.653579171169851e-13 0 0)
(-1.131396275011e-13 0 0)
(-2.697944963487588e-13 0 0)
(-3.30715834233925e-13 0 0)
(-2.610914480794693e-13 0 0)
(-1.479518205783338e-13 0 0)
(1.218426757704179e-13 0 0)
(6.092133788521326e-14 0 0)
(8.703048269315415e-14 0 0)
(1.131396275010925e-13 0 0)
(2.523883998101334e-13 0 0)
(2.088731584635587e-13 0 0)
(3.742310755805163e-13 0 0)
(2.872005928874149e-13 0 0)
(1.479518205783346e-13 0 0)
(6.962438615451729e-14 0 0)
(-5.221828961589214e-14 0 0)
(-6.092133788520599e-14 0 0)
(-1.044365792317836e-13 0 0)
(-4.351524134657907e-14 0 0)
(-1.566548688476666e-13 0 0)
(-1.479518205783295e-13 0 0)
(-1.305457240397296e-13 0 0)
(-8.703048269315582e-14 0 0)
(1.30545724039715e-13 0 0)
(1.914670619249316e-13 0 0)
(2.6109144807945e-13 0 0)
(1.044365792317796e-13 0 0)
(1.392487723090069e-13 0 0)
(1.305457240397244e-13 0 0)
(1.566548688476659e-13 0 0)
(1.740609653863249e-13 0 0)
(2.610914480794351e-13 0 0)
(3.046066894260355e-13 0 0)
(3.133097376952859e-13 0 0)
(2.349823032715025e-13 0 0)
(1.218426757704097e-13 0 0)
(1.653579171169879e-13 0 0)
(4.351524134657778e-14 0 0)
(1.740609653862949e-14 0 0)
(-1.740609653862819e-14 0 0)
(-3.48121930772509e-14 0 0)
(-1.566548688476717e-13 0 0)
(-2.436853515408285e-13 0 0)
(-2.349823032715202e-13 0 0)
(-3.307158342339777e-13 0 0)
(-4.264493651964385e-13 0 0)
(-4.699646065430185e-13 0 0)
(-4.003402203884897e-13 0 0)
(-3.568249790419068e-13 0 0)
(-3.568249790418479e-13 0 0)
(-3.742310755805499e-13 0 0)
(-3.916371721191595e-13 0 0)
(-4.003402203884842e-13 0 0)
(-4.873707030816427e-13 0 0)
(-4.52558510004378e-13 0 0)
(-4.960737513509516e-13 0 0)
(-4.17746316927028e-13 0 0)
(-1.653579171169839e-13 0 0)
(5.221828961589621e-14 0 0)
(1.566548688476723e-13 0 0)
(2.001701101942346e-13 0 0)
(3.481219307725841e-13 0 0)
(3.13309737695341e-13 0 0)
(3.481219307725798e-13 0 0)
(3.046066894260314e-13 0 0)
(3.394188825032129e-13 0 0)
(2.436853515408134e-13 0 0)
(1.479518205783459e-13 0 0)
(1.740609653862985e-13 0 0)
(1.914670619249212e-13 0 0)
(3.13309737695321e-13 0 0)
(3.220127859646559e-13 0 0)
(2.088731584635185e-13 0 0)
(1.305457240397197e-13 0 0)
(1.305457240397265e-13 0 0)
(8.703048269315245e-14 0 0)
(1.044365792317726e-13 0 0)
(2.175762067328659e-13 0 0)
(3.39418882503275e-13 0 0)
(5.482920409668457e-13 0 0)
(7.049469098144996e-13 0 0)
(8.006804407768096e-13 0 0)
(6.962438615452186e-13 0 0)
(4.612615582736676e-13 0 0)
(2.349823032714919e-13 0 0)
(4.35152413465637e-14 0 0)
(8.703048269307568e-15 0 0)
(-1.827640136556175e-13 0 0)
(-1.218426757703907e-13 0 0)
(-7.832743442383168e-14 0 0)
(-4.351524134657316e-14 0 0)
(-2.610914480794538e-14 0 0)
(-2.610914480794849e-14 0 0)
(-5.221828961589062e-14 0 0)
(1.740609653863167e-14 0 0)
(1.47951820578354e-13 0 0)
(-9.573353096246033e-14 0 0)
(-2.610914480793955e-14 0 0)
(5.221828961588974e-14 0 0)
(-1.74060965386294e-14 0 0)
(-9.573353096246055e-14 0 0)
(-1.566548688476655e-13 0 0)
(-1.653579171169836e-13 0 0)
(-2.872005928873926e-13 0 0)
(-2.175762067328395e-13 0 0)
(-2.175762067328708e-13 0 0)
(-2.262792550021808e-13 0 0)
(-2.001701101942398e-13 0 0)
(-1.653579171169859e-13 0 0)
(-9.573353096246523e-14 0 0)
(-1.740609653863708e-14 0 0)
(1.305457240397118e-13 0 0)
(9.573353096246072e-14 0 0)
(1.044365792317569e-13 0 0)
(6.962438615452124e-14 0 0)
(7.832743442383309e-14 0 0)
(1.740609653862481e-14 0 0)
(3.481219307725485e-14 0 0)
(1.218426757704101e-13 0 0)
(1.566548688476733e-13 0 0)
(1.131396275010752e-13 0 0)
(-3.481219307726349e-14 0 0)
(8.703048269309296e-15 0 0)
(-7.832743442384285e-14 0 0)
(-1.305457240397195e-13 0 0)
(-1.653579171169871e-13 0 0)
(-2.088731584635655e-13 0 0)
(-1.566548688476803e-13 0 0)
(-1.740609653862812e-13 0 0)
(-3.481219307726039e-14 0 0)
(-6.962438615451834e-14 0 0)
(-1.392487723090438e-13 0 0)
(-2.610914480794167e-13 0 0)
(-2.697944963487618e-13 0 0)
(-3.65528027311239e-13 0 0)
(-2.523883998101195e-13 0 0)
(-1.479518205783429e-13 0 0)
(-2.26279255002172e-13 0 0)
(-8.703048269314288e-14 0 0)
(-1.218426757704017e-13 0 0)
(-1.392487723090143e-13 0 0)
(-1.131396275010835e-13 0 0)
(-2.959036411566995e-13 0 0)
(-4.438554617350572e-13 0 0)
(-5.308859444282111e-13 0 0)
(-5.221828961588519e-13 0 0)
(-5.831042340441007e-13 0 0)
(-3.742310755805486e-13 0 0)
(-2.784975446180637e-13 0 0)
(-2.69794496348743e-13 0 0)
(-1.827640136556086e-13 0 0)
(-9.573353096246462e-14 0 0)
(6.962438615451904e-14 0 0)
(1.740609653863301e-14 0 0)
(1.91467061924929e-13 0 0)
(8.703048269314789e-14 0 0)
(8.703048269307257e-15 0 0)
(-2.262792550021745e-13 0 0)
(-2.001701101942507e-13 0 0)
(-3.133097376953404e-13 0 0)
(-4.177463169271332e-13 0 0)
(-4.003402203884473e-13 0 0)
(-3.046066894260095e-13 0 0)
(-1.827640136556178e-13 0 0)
(-1.91467061924921e-13 0 0)
(-7.832743442382106e-14 0 0)
(-2.610914480794437e-13 0 0)
(-3.394188825032873e-13 0 0)
(-3.829341238498608e-13 0 0)
(-4.003402203884844e-13 0 0)
(-4.177463169270917e-13 0 0)
(-3.220127859646393e-13 0 0)
(-1.218426757704058e-13 0 0)
(-1.131396275010841e-13 0 0)
(4.351524134657817e-14 0 0)
(4.351524134658406e-14 0 0)
(-8.703048269310648e-15 0 0)
(-1.218426757704065e-13 0 0)
(-1.653579171169631e-13 0 0)
(-2.349823032714985e-13 0 0)
(-3.829341238498523e-13 0 0)
(-3.829341238498524e-13 0 0)
(-6.17916427121297e-13 0 0)
(-6.440255719293029e-13 0 0)
(-7.22353006353135e-13 0 0)
(-7.658682476997114e-13 0 0)
(-7.223530063530898e-13 0 0)
(-7.397591028917373e-13 0 0)
(-6.005103305827291e-13 0 0)
(-6.266194753906692e-13 0 0)
(-4.873707030816006e-13 0 0)
(-4.786676548122973e-13 0 0)
(-4.351524134657425e-13 0 0)
(-5.482920409668369e-13 0 0)
(-5.395889926975207e-13 0 0)
(-5.395889926974711e-13 0 0)
(-6.092133788520348e-13 0 0)
(-5.83104234044109e-13 0 0)
(-7.049469098144732e-13 0 0)
(-6.092133788519825e-13 0 0)
(-5.831042340441111e-13 0 0)
(-5.744011857747804e-13 0 0)
(-4.438554617350326e-13 0 0)
(-4.003402203884228e-13 0 0)
(-3.133097376953341e-13 0 0)
(-2.872005928873818e-13 0 0)
(-2.69794496348758e-13 0 0)
(-4.090432686577682e-13 0 0)
(-2.697944963487447e-13 0 0)
(-1.131396275010807e-13 0 0)
(-1.82764013655604e-13 0 0)
(-2.52388399810106e-13 0 0)
(-7.832743442381659e-14 0 0)
(8.703048269316748e-14 0 0)
(9.573353096248359e-14 0 0)
(2.088731584635684e-13 0 0)
(2.784975446180946e-13 0 0)
(3.481219307726043e-13 0 0)
)
;

boundaryField
{
    inlet
    {
        type            zeroGradient;
    }
    outlet
    {
        type            velocityOutletNSCBCx;
        pInf            101325;
        gamma           1.4;
        etaAc           1;
        fieldInf        (-1 0 0);
        lInf            2.25;
        value           uniform (3.982942356862873e-13 0 0);
    }
    frontAndBack
    {
        type            empty;
    }
}


// ************************************************************************* //
