/*--------------------------------*- C++ -*----------------------------------*\
| =========                 |                                                 |
| \\      /  F ield         | OpenFOAM: The Open Source CFD Toolbox           |
|  \\    /   O peration     | Version:  v2012                                 |
|   \\  /    A nd           | Website:  www.openfoam.com                      |
|    \\/     M anipulation  |                                                 |
\*---------------------------------------------------------------------------*/
FoamFile
{
    version     2.0;
    format      ascii;
    class       volVectorField;
    location    "0.001";
    object      UMean;
}
// * * * * * * * * * * * * * * * * * * * * * * * * * * * * * * * * * * * * * //

dimensions      [0 1 -1 0 0 0 0];


internalField   nonuniform List<vector> 
1000
(
(-0.0002059070204760632 0 0)
(0.0002282925254397189 0 0)
(0.0003676453459477041 0 0)
(0.000742520545988413 0 0)
(0.001179584158090489 0 0)
(0.001731417938954056 0 0)
(0.002371523452374165 0 0)
(0.003086322281283112 0 0)
(0.003868321069633899 0 0)
(0.004701211822953626 0 0)
(0.005563416777503754 0 0)
(0.006427134490428596 0 0)
(0.007289860999134843 0 0)
(0.008138367533152084 0 0)
(0.008965086963473548 0 0)
(0.009746586310983041 0 0)
(0.01047177056205873 0 0)
(0.01112003525883664 0 0)
(0.01168507605765441 0 0)
(0.01215174873557603 0 0)
(0.01251712193384161 0 0)
(0.01276967402429015 0 0)
(0.01290950901277695 0 0)
(0.01292909709383912 0 0)
(0.0128325375558056 0 0)
(0.01261717309354589 0 0)
(0.01229156341334017 0 0)
(0.01185731504867184 0 0)
(0.01132515459395119 0 0)
(0.01069747025242388 0 0)
(0.00998500929002228 0 0)
(0.00919690954315178 0 0)
(0.008363957807432799 0 0)
(0.007515082599926418 0 0)
(0.006667570758395192 0 0)
(0.00582181938404034 0 0)
(0.004984794363366221 0 0)
(0.004165752700693067 0 0)
(0.003379065135951346 0 0)
(0.00264127506500824 0 0)
(0.001970236260516345 0 0)
(0.001381654382224323 0 0)
(0.0008888489944768961 0 0)
(0.0005009919995252678 0 0)
(0.0002249113457125487 0 0)
(6.447575630483311e-05 0 0)
(2.220941840698652e-05 0 0)
(9.83452081676316e-05 0 0)
(0.0002916203250145371 0 0)
(0.000598762141779712 0 0)
(0.001015410977747397 0 0)
(0.001536833507029835 0 0)
(0.002158245728479216 0 0)
(0.002872174876529097 0 0)
(0.003660440547731379 0 0)
(0.004489285546086839 0 0)
(0.005327688374288922 0 0)
(0.006165740368967026 0 0)
(0.007001796575535887 0 0)
(0.007829626432166293 0 0)
(0.00864271786883959 0 0)
(0.009427003123587492 0 0)
(0.01016955297954571 0 0)
(0.01085148871618665 0 0)
(0.01145817789980484 0 0)
(0.01197243535315463 0 0)
(0.01238441715101936 0 0)
(0.01268364175618787 0 0)
(0.012867280004184 0 0)
(0.01293120550878997 0 0)
(0.01287752208519254 0 0)
(0.01270599167764853 0 0)
(0.0124212731985381 0 0)
(0.01202461727700362 0 0)
(0.01152087587438315 0 0)
(0.01091200882887925 0 0)
(0.01020786474817047 0 0)
(0.009427210843818238 0 0)
(0.008607422983709959 0 0)
(0.007777688980419806 0 0)
(0.006948851305673793 0 0)
(0.006121765851620324 0 0)
(0.00530096506915629 0 0)
(0.004493500301359272 0 0)
(0.003709740227618603 0 0)
(0.002963151477049486 0 0)
(0.002269306529925715 0 0)
(0.001644888813433606 0 0)
(0.001105918165251462 0 0)
(0.000666492169118751 0 0)
(0.0003374451085100297 0 0)
(0.000125990596312884 0 0)
(3.563328571049141e-05 0 0)
(6.69281958797551e-05 0 0)
(0.0002183211076566463 0 0)
(0.000487267041648129 0 0)
(0.000870966273305088 0 0)
(0.001366768519717374 0 0)
(0.001970934740708414 0 0)
(0.002674062565205427 0 0)
(0.00345229348440018 0 0)
(0.00426726155792197 0 0)
(0.005089599466644144 0 0)
(0.005911579963758055 0 0)
(0.006731898920586146 0 0)
(0.007545807472463552 0 0)
(0.008348056076383521 0 0)
(0.009127784769381676 0 0)
(0.009874080698540259 0 0)
(0.01057105156316859 0 0)
(0.01120423880986625 0 0)
(0.011756446651644 0 0)
(0.01221448430282746 0 0)
(0.01256509769720592 0 0)
(0.01280103353400343 0 0)
(0.0129160917996224 0 0)
(0.01290991948313872 0 0)
(0.01278212557013441 0 0)
(0.01253618461091529 0 0)
(0.01217340231297304 0 0)
(0.01169739979329872 0 0)
(0.01111048350423428 0 0)
(0.01042301197592412 0 0)
(0.009656880486132204 0 0)
(0.008851390058750876 0 0)
(0.008036370467539385 0 0)
(0.007221923749208079 0 0)
(0.006408871179542476 0 0)
(0.00560083220964495 0 0)
(0.004803483307564105 0 0)
(0.004025421826545192 0 0)
(0.0032779782174246 0 0)
(0.002574896906648988 0 0)
(0.001931606254546182 0 0)
(0.001364109929028533 0 0)
(0.0008875004018110968 0 0)
(0.0005140239208003861 0 0)
(0.0002503079825911508 0 0)
(9.288495644247996e-05 0 0)
(2.221429005710821e-05 0 0)
(2.630340287593996e-06 0 0)
(1.078191053734421e-07 0 0)
(1.016642832916419e-09 0 0)
(1.433244073052146e-12 0 0)
(-2.91690061591173e-14 0 0)
(-5.003625734086871e-14 0 0)
(1.80080364765634e-14 0 0)
(-7.990752676090872e-14 0 0)
(2.386441045606184e-14 0 0)
(-4.945939823368546e-14 0 0)
(5.793671902627105e-15 0 0)
(-5.981778133232054e-14 0 0)
(-3.812286273589777e-14 0 0)
(-7.860332356205151e-14 0 0)
(-3.659293206031608e-14 0 0)
(-7.413893568903532e-14 0 0)
(-1.079102742902738e-13 0 0)
(-7.084080644576136e-14 0 0)
(-7.072794270739806e-14 0 0)
(-6.763046011010448e-14 0 0)
(-5.349741198400386e-14 0 0)
(-5.322152284577252e-14 0 0)
(-4.08692137027322e-14 0 0)
(-2.888057660551919e-14 0 0)
(3.951484884238016e-14 0 0)
(-8.373235344987449e-14 0 0)
(-3.863701976622093e-14 0 0)
(-5.861390145645075e-14 0 0)
(-5.348487156861997e-14 0 0)
(-3.550191592280889e-14 0 0)
(-3.803507982828537e-14 0 0)
(-4.784168465048883e-14 0 0)
(-5.151602635495834e-14 0 0)
(5.517782764406778e-15 0 0)
(-1.126003896400159e-13 0 0)
(-5.041246980208362e-14 0 0)
(-5.009895941773746e-14 0 0)
(-3.642990666045771e-14 0 0)
(-3.365847486287812e-14 0 0)
(-4.609856691354731e-14 0 0)
(-1.755658152296877e-16 0 0)
(-1.13239950824072e-13 0 0)
(-1.562535755556985e-14 0 0)
(-7.63962104562843e-14 0 0)
(9.681200668459903e-15 0 0)
(-4.1295587825439e-14 0 0)
(1.312981489621399e-14 0 0)
(3.172725089535098e-15 0 0)
(7.008838152333491e-14 0 0)
(-4.507025285290829e-14 0 0)
(2.989635025078614e-14 0 0)
(2.609660439257202e-14 0 0)
(2.939473363584248e-14 0 0)
(1.784501107670704e-14 0 0)
(2.143156987357135e-14 0 0)
(1.600157001678022e-14 0 0)
(9.88937156366152e-14 0 0)
(-5.789909778015057e-14 0 0)
(6.577447863480545e-14 0 0)
(-9.189616385812719e-14 0 0)
(1.680415660067718e-15 0 0)
(-4.562203112934982e-14 0 0)
(-1.196355626646369e-14 0 0)
(-7.072794270741864e-15 0 0)
(4.527089949886407e-15 0 0)
(9.78152399143847e-16 0 0)
(-1.153718214376088e-14 0 0)
(6.73545709718838e-14 0 0)
(-4.790438672735114e-14 0 0)
(1.570060004781226e-14 0 0)
(2.785226254488293e-14 0 0)
(9.242286130380997e-15 0 0)
(-1.171274795899159e-14 0 0)
(-9.944549391305402e-15 0 0)
(-1.922445676780826e-14 0 0)
(-1.745625820012243e-14 0 0)
(3.331988364779436e-14 0 0)
(-3.622926001448228e-14 0 0)
(-3.084942181918327e-15 0 0)
(-1.931223967541012e-15 0 0)
(1.956304798290384e-15 0 0)
(2.783972212950923e-15 0 0)
(-1.232722831230039e-14 0 0)
(-1.190085418959577e-14 0 0)
(-9.267366961128542e-15 0 0)
(4.288822057789624e-15 0 0)
(-9.167043638138879e-15 0 0)
(-1.551249381720557e-14 0 0)
(-4.313902888536204e-15 0 0)
(1.24902537121566e-14 0 0)
(2.40274358559183e-14 0 0)
(2.918154657448588e-14 0 0)
(2.41277591789071e-14 0 0)
(1.454688183343636e-14 0 0)
(1.118605051329775e-14 0 0)
(-4.765357841989446e-15 0 0)
(-1.442147767970623e-15 0 0)
(1.208896042020152e-14 0 0)
(1.672891410845132e-14 0 0)
(3.959009133462103e-14 0 0)
(4.449339374571592e-14 0 0)
(1.215542462168057e-13 0 0)
(-2.696189305336351e-15 0 0)
(5.087646517090577e-14 0 0)
(4.332713511596775e-14 0 0)
(4.222357856308677e-14 0 0)
(3.827334772038806e-14 0 0)
(3.215362501804042e-14 0 0)
(3.410992981633263e-14 0 0)
(2.257274767257445e-14 0 0)
(4.508279326827937e-14 0 0)
(-1.157480338988073e-14 0 0)
(1.455942224880916e-14 0 0)
(-2.106789782773402e-15 0 0)
(9.743902745327822e-15 0 0)
(2.345057674872662e-15 0 0)
(3.063623475783088e-14 0 0)
(4.859410957290247e-14 0 0)
(4.328951386984849e-14 0 0)
(4.129558782543403e-14 0 0)
(3.902577264280638e-14 0 0)
(4.291330140863642e-14 0 0)
(4.468149997632562e-14 0 0)
(6.088371663907518e-14 0 0)
(7.770041365514973e-14 0 0)
(7.10665339224875e-14 0 0)
(1.324518671765131e-13 0 0)
(2.995905232765855e-14 0 0)
(9.254826545754582e-14 0 0)
(7.816440902397976e-14 0 0)
(8.808387758453216e-14 0 0)
(9.089293062823205e-14 0 0)
(9.38148474102887e-14 0 0)
(1.048127916929865e-13 0 0)
(9.771491659150147e-14 0 0)
(1.384085644789956e-13 0 0)
(9.896895812886373e-14 0 0)
(1.19698264741512e-13 0 0)
(1.053269487233133e-13 0 0)
(1.116473180716207e-13 0 0)
(1.378818670333094e-13 0 0)
(1.311852852237845e-13 0 0)
(1.069321218911385e-13 0 0)
(9.84046394370439e-14 0 0)
(8.27416606353606e-14 0 0)
(7.12546401530899e-14 0 0)
(5.95920538555982e-14 0 0)
(6.719154557202269e-14 0 0)
(9.654865796175732e-14 0 0)
(1.044240388163943e-13 0 0)
(9.075498605912169e-14 0 0)
(1.678785406070768e-13 0 0)
(3.668071496793344e-14 0 0)
(1.444781255198428e-13 0 0)
(9.322544788773344e-14 0 0)
(1.330036454529411e-13 0 0)
(5.989302382457133e-14 0 0)
(9.00401823828153e-14 0 0)
(2.747605008367404e-14 0 0)
(3.897561098131088e-14 0 0)
(7.072794270740248e-14 0 0)
(7.688528665585646e-14 0 0)
(7.486627978071088e-14 0 0)
(6.572431697330596e-14 0 0)
(7.04018919076897e-14 0 0)
(9.46675956556936e-14 0 0)
(1.069446623065168e-13 0 0)
(1.052015445695649e-13 0 0)
(6.411914380548454e-14 0 0)
(1.170898583437897e-13 0 0)
(6.33290976369519e-15 0 0)
(6.912276953956614e-14 0 0)
(4.354032217732383e-14 0 0)
(7.396336987379607e-14 0 0)
(7.348683408960545e-14 0 0)
(7.075302353814449e-14 0 0)
(7.179387801415765e-14 0 0)
(6.834526378640213e-14 0 0)
(8.364457054226687e-14 0 0)
(9.233507839619109e-14 0 0)
(8.259117565087938e-14 0 0)
(8.948840410637304e-14 0 0)
(1.083491888283606e-13 0 0)
(9.98467872050088e-14 0 0)
(7.250868169045965e-14 0 0)
(1.299688649325252e-13 0 0)
(3.265524163299176e-14 0 0)
(8.789577135392017e-14 0 0)
(4.861919040364964e-14 0 0)
(3.226648875640282e-14 0 0)
(3.792221608992305e-14 0 0)
(4.983561069489123e-14 0 0)
(4.765357841987746e-14 0 0)
(3.409738940095652e-14 0 0)
(3.094974514217222e-14 0 0)
(1.049632766774558e-14 0 0)
(3.000921398914802e-14 0 0)
(4.20730935786012e-14 0 0)
(4.653748145162466e-14 0 0)
(5.127775846286064e-14 0 0)
(3.158930632623114e-14 0 0)
(8.309279226581579e-14 0 0)
(-2.2158913965244e-14 0 0)
(3.269286287911143e-14 0 0)
(2.113059990460363e-14 0 0)
(4.055570331839027e-14 0 0)
(3.265524163299141e-14 0 0)
(2.67988676534972e-14 0 0)
(2.702459513021932e-14 0 0)
(1.236484955842288e-14 0 0)
(1.053394891386998e-14 0 0)
(8.163810408248644e-15 0 0)
(8.412110632646013e-14 0 0)
(-2.39521933636712e-14 0 0)
(2.970824402018515e-14 0 0)
(1.039600434476041e-14 0 0)
(1.49230942946485e-14 0 0)
(3.043558811185733e-14 0 0)
(6.405644172861562e-14 0 0)
(5.569198467439352e-14 0 0)
(3.385912150886226e-14 0 0)
(8.19892357129344e-14 0 0)
(1.793279398432533e-14 0 0)
(3.959009133462105e-14 0 0)
(3.979073798059993e-14 0 0)
(2.787734337562811e-14 0 0)
(2.262290933406986e-14 0 0)
(1.389478023400939e-14 0 0)
(-4.802979088107694e-15 0 0)
(6.357990594441477e-15 0 0)
(-9.091801145898985e-15 0 0)
(-2.099265533549485e-14 0 0)
(7.148036762961337e-16 0 0)
(1.92620780139263e-14 0 0)
(5.028706564832601e-15 0 0)
(7.624572547177584e-15 0 0)
(-9.029099069041299e-16 0 0)
(7.433958233500335e-14 0 0)
(-3.187773587982499e-14 0 0)
(1.671637369307864e-14 0 0)
(-1.098540386731927e-14 0 0)
(1.397002272624808e-14 0 0)
(-4.401685796152648e-15 0 0)
(-7.273440916716771e-15 0 0)
(-1.850965309151101e-14 0 0)
(-2.298658137990254e-14 0 0)
(2.603390231570413e-14 0 0)
(-3.133849801875484e-14 0 0)
(-3.86244793508106e-15 0 0)
(-9.794064406819203e-15 0 0)
(-2.646027643840383e-14 0 0)
(-2.653551893064537e-14 0 0)
(-1.13616163285272e-14 0 0)
(-5.50524234903064e-15 0 0)
(-1.015773645264007e-15 0 0)
(1.90238101218319e-14 0 0)
(-2.51184519934216e-14 0 0)
(-9.468013607106749e-15 0 0)
(-2.977094609704873e-14 0 0)
(-3.079926015769021e-14 0 0)
(-3.822318605889256e-14 0 0)
(-3.552699675355385e-14 0 0)
(1.734339446175888e-14 0 0)
(-4.194768942486875e-14 0 0)
(-2.821593459072246e-15 0 0)
(-8.351916638854423e-15 0 0)
(3.310669658643006e-15 0 0)
(-5.641932876606209e-14 0 0)
(-2.120584239684691e-14 0 0)
(-2.758891382223409e-16 0 0)
(2.683648889961321e-14 0 0)
(1.923699718318075e-14 0 0)
(9.881847314434059e-15 0 0)
(4.670050685148319e-14 0 0)
(1.590124669378591e-14 0 0)
(5.51652872286908e-14 0 0)
(2.844166206743866e-14 0 0)
(2.158205485805292e-14 0 0)
(3.402214690871372e-14 0 0)
(2.123092322758949e-14 0 0)
(4.523327825275736e-14 0 0)
(1.756912193848255e-14 0 0)
(4.535868240649246e-14 0 0)
(1.605173167827041e-14 0 0)
(-1.252787495828299e-14 0 0)
(-2.79525858678761e-14 0 0)
(-2.781464129876522e-14 0 0)
(-3.053591143484765e-14 0 0)
(-4.397923671540105e-14 0 0)
(-2.957029945107821e-14 0 0)
(-4.752817426616808e-15 0 0)
(2.164475693492124e-14 0 0)
(3.531380969220252e-14 0 0)
(2.836641957519918e-14 0 0)
(6.64642014803444e-15 0 0)
(4.32644330390958e-15 0 0)
(7.689782707123124e-14 0 0)
(-3.088704306530822e-14 0 0)
(7.181895884490281e-14 0 0)
(-1.338062320368576e-14 0 0)
(3.558969883042521e-14 0 0)
(-4.752817426613274e-15 0 0)
(2.790242420637685e-14 0 0)
(-2.420300167113438e-15 0 0)
(-2.926932948210064e-14 0 0)
(-3.566494132266695e-14 0 0)
(-3.078671974231202e-14 0 0)
(-3.673087662942485e-14 0 0)
(-4.270011434728035e-14 0 0)
(-4.582267777532407e-14 0 0)
(-5.050025270969313e-14 0 0)
(-6.837034461714768e-14 0 0)
(-9.256080587291864e-14 0 0)
(-8.457256127991345e-14 0 0)
(-4.675066851297037e-14 0 0)
(-8.497385457186038e-14 0 0)
(-2.717508011470169e-14 0 0)
(-9.676184502310052e-14 0 0)
(-9.817891196031976e-14 0 0)
(-1.118103434714775e-13 0 0)
(-8.675459355492005e-14 0 0)
(-8.167572532860138e-14 0 0)
(-7.738690327080525e-14 0 0)
(-9.274891210353104e-14 0 0)
(-9.365182201043323e-14 0 0)
(-1.163123525906253e-13 0 0)
(-1.274733222731724e-13 0 0)
(-1.384963473866143e-13 0 0)
(-1.332795345911855e-13 0 0)
(-1.079855167825208e-13 0 0)
(-9.052925858238877e-14 0 0)
(-8.002039049927688e-14 0 0)
(-9.118136018182678e-14 0 0)
(-8.17008061593381e-14 0 0)
(-7.894191477714118e-14 0 0)
(-7.339905118198703e-14 0 0)
(-8.287960520447054e-14 0 0)
(-7.263408584419651e-14 0 0)
(-5.714667285773115e-14 0 0)
(-6.271461728363643e-14 0 0)
(-8.329343891179955e-14 0 0)
(-7.421417818126899e-14 0 0)
(-5.345979073788122e-14 0 0)
(-6.766808135622935e-14 0 0)
(-7.633350837942008e-14 0 0)
(-4.587283943682108e-14 0 0)
(-2.559498777762198e-14 0 0)
(-1.578838295542892e-14 0 0)
(-2.679886765349589e-14 0 0)
(-1.901126970645711e-14 0 0)
(1.162496505137547e-14 0 0)
(2.402743585591882e-14 0 0)
(8.514942038711364e-15 0 0)
(2.995905232765542e-14 0 0)
(3.024748188124748e-14 0 0)
(3.369609610900488e-14 0 0)
(3.363339403213706e-14 0 0)
(3.369609610900257e-14 0 0)
(1.977623504425226e-14 0 0)
(-2.44914312247408e-14 0 0)
(-3.785951401305463e-14 0 0)
(-4.720212346642672e-14 0 0)
(-3.550191592280588e-14 0 0)
(-4.120780491782072e-14 0 0)
(-4.864427123439813e-14 0 0)
(-5.185461757004719e-14 0 0)
(-5.244401709261368e-14 0 0)
(-4.187244693262467e-14 0 0)
(-3.036034561961307e-14 0 0)
(-1.02831406063949e-14 0 0)
(-1.787009190745223e-14 0 0)
(-8.23905290048824e-15 0 0)
(-1.193847543571584e-14 0 0)
(-2.16949185964104e-15 0 0)
(1.217674332781892e-14 0 0)
(3.163946798772767e-14 0 0)
(2.594611940808864e-14 0 0)
(2.357598090246873e-14 0 0)
(3.533889052294968e-14 0 0)
(4.924621117233373e-14 0 0)
(3.591574963013982e-14 0 0)
(2.783972212950526e-14 0 0)
(4.242422520906504e-14 0 0)
(5.294563370755925e-14 0 0)
(5.043755063282804e-14 0 0)
(4.777898257361374e-14 0 0)
(5.514020639794487e-14 0 0)
(7.645891253316065e-14 0 0)
(8.412110632646101e-14 0 0)
(9.974646388202194e-14 0 0)
(1.092520987352609e-13 0 0)
(1.180178490814444e-13 0 0)
(1.263446848895497e-13 0 0)
(1.276363476730349e-13 0 0)
(1.288026063027747e-13 0 0)
(1.379571095255519e-13 0 0)
(1.425092803061878e-13 0 0)
(1.478514972553511e-13 0 0)
(1.573320512778446e-13 0 0)
(1.645177092869465e-13 0 0)
(1.485286796855452e-13 0 0)
(1.288527679642784e-13 0 0)
(1.2835115134932e-13 0 0)
(1.405905967540204e-13 0 0)
(1.154219830990983e-13 0 0)
(1.430234373364915e-13 0 0)
(1.573947533547071e-13 0 0)
(1.399635759853356e-13 0 0)
(1.26545331535524e-13 0 0)
(1.298434607787979e-13 0 0)
(1.325772713302372e-13 0 0)
(1.473749614711663e-13 0 0)
(1.362014513732371e-13 0 0)
(1.462964857490198e-13 0 0)
(1.387596961094618e-13 0 0)
(1.287022829797988e-13 0 0)
(1.254166941518948e-13 0 0)
(1.140801586541204e-13 0 0)
(1.051639233234406e-13 0 0)
(6.805683423281096e-14 0 0)
(7.121701890697088e-14 0 0)
(8.45098592030393e-14 0 0)
(1.487920284084042e-13 0 0)
(1.026307594179642e-13 0 0)
(1.264700890432822e-13 0 0)
(1.270971098119656e-13 0 0)
(1.33053807114439e-13 0 0)
(1.360509663887582e-13 0 0)
(1.227455856773075e-13 0 0)
(1.126129300554024e-13 0 0)
(1.056529995230204e-13 0 0)
(1.433118668900925e-13 0 0)
(1.016526070188249e-13 0 0)
(1.101299278114194e-13 0 0)
(8.679221480104029e-14 0 0)
(7.053983647679746e-14 0 0)
(6.591242320391612e-14 0 0)
(6.005604922442304e-14 0 0)
(8.738161432360855e-14 0 0)
(5.752288531893725e-14 0 0)
(7.704831205572179e-14 0 0)
(5.383600319908788e-14 0 0)
(5.179191549318021e-14 0 0)
(6.104674203893758e-14 0 0)
(4.616126899041491e-14 0 0)
(4.894524120336328e-14 0 0)
(5.032468689446779e-14 0 0)
(7.795122196261632e-14 0 0)
(2.55072048700096e-14 0 0)
(6.277731936050446e-14 0 0)
(7.062761938440544e-14 0 0)
(6.976233072362865e-14 0 0)
(5.368551821460891e-14 0 0)
(6.395611840562531e-14 0 0)
(5.09893289092712e-14 0 0)
(3.624180042985155e-14 0 0)
(7.026394733857354e-14 0 0)
(9.279907376485926e-16 0 0)
(5.764828947267187e-14 0 0)
(5.605565672022469e-14 0 0)
(5.147840510884262e-14 0 0)
(4.766611883524946e-14 0 0)
(2.444126956324647e-14 0 0)
(4.651240062086822e-14 0 0)
(-3.84990751971322e-15 0 0)
(2.825355583683671e-14 0 0)
(3.012207772750619e-14 0 0)
(1.542471090959104e-14 0 0)
(1.655334829321606e-15 0 0)
(3.135103843411875e-15 0 0)
(1.225198582005508e-14 0 0)
(3.937690427324202e-15 0 0)
(2.617184688481033e-14 0 0)
(-2.963300152794101e-14 0 0)
(1.631508040111944e-14 0 0)
(1.88106230605472e-16 0 0)
(-3.135103843411863e-16 0 0)
(-1.0270600191021e-14 0 0)
(-2.663584225363565e-14 0 0)
(-9.104341561271183e-15 0 0)
(-3.513824387697417e-14 0 0)
(1.795787481507185e-14 0 0)
(-8.424651048018894e-14 0 0)
(-2.232193936510058e-14 0 0)
(-5.068835894030233e-14 0 0)
(-6.260175354527164e-14 0 0)
(-8.423397006481751e-14 0 0)
(-6.849574877087919e-14 0 0)
(-6.025669587039552e-14 0 0)
(-7.844029816219638e-14 0 0)
(-6.863369333999018e-14 0 0)
(-4.734006803553288e-14 0 0)
(-4.870697331126504e-14 0 0)
(-4.23113614707005e-14 0 0)
(-3.326972198629824e-14 0 0)
(-4.051808207226592e-14 0 0)
(-5.566690384364199e-14 0 0)
(-3.048574977334809e-14 0 0)
(-9.076752647448883e-14 0 0)
(-5.226845127738073e-14 0 0)
(-8.368219178838545e-14 0 0)
(-9.67116833616032e-14 0 0)
(-1.027687039870812e-13 0 0)
(-9.200902759647896e-14 0 0)
(-5.905281599452868e-14 0 0)
(-5.816244650300166e-14 0 0)
(-1.674145452382488e-14 0 0)
(-1.408037838153735e-13 0 0)
(-7.586951301059713e-14 0 0)
(-7.929304640760694e-14 0 0)
(-9.030353110567522e-14 0 0)
(-9.103087519733097e-14 0 0)
(-9.194632551962368e-14 0 0)
(-1.049256554313497e-13 0 0)
(-9.796572489896654e-14 0 0)
(-9.43164640252405e-14 0 0)
(-7.275948999793162e-14 0 0)
(-7.344921284348486e-14 0 0)
(-8.790831176930034e-14 0 0)
(-5.890233101004309e-14 0 0)
(-2.75889138220363e-14 0 0)
(-4.06058649798863e-14 0 0)
(-4.288822057788259e-15 0 0)
(-5.043755063283156e-14 0 0)
(-2.590849816196534e-14 0 0)
(-5.19047792315481e-14 0 0)
(-6.006858963979275e-14 0 0)
(-8.42715913109356e-14 0 0)
(-9.895641771349451e-14 0 0)
(-7.639621045629054e-14 0 0)
(-6.612561026526321e-14 0 0)
(1.832154686090477e-14 0 0)
(-1.037343159708557e-13 0 0)
(-4.058078414913698e-14 0 0)
(-5.843833564122025e-14 0 0)
(-6.465838166654588e-14 0 0)
(-7.703577164034357e-14 0 0)
(-7.649653377927979e-14 0 0)
(-7.654669544076633e-14 0 0)
(-8.81842009075206e-14 0 0)
(-8.121172995977037e-14 0 0)
(-7.277203041330169e-14 0 0)
(-8.23779885895206e-14 0 0)
(-8.374489386524142e-14 0 0)
(-7.614540214881822e-14 0 0)
(-1.017529303418131e-13 0 0)
(-1.091392349968883e-13 0 0)
(-1.112711056104296e-13 0 0)
(-1.12111313440443e-13 0 0)
(-1.284389342569444e-13 0 0)
(-1.355869710199286e-13 0 0)
(-1.180303894968046e-13 0 0)
(-1.121363942712007e-13 0 0)
(-1.322888417766564e-13 0 0)
(-1.212281954170958e-13 0 0)
(-1.02216925710636e-13 0 0)
(-9.465505524032068e-14 0 0)
(-1.015648241112105e-13 0 0)
(-9.40656557177617e-14 0 0)
(-1.314486339466143e-13 0 0)
(-1.151460939608779e-13 0 0)
(-1.272601352118216e-13 0 0)
(-1.14218103223225e-13 0 0)
(-1.078350317980375e-13 0 0)
(-1.025178956795956e-13 0 0)
(-1.150332302225187e-13 0 0)
(-1.273855393655573e-13 0 0)
(-4.883237746499934e-14 0 0)
(-1.489299729774955e-13 0 0)
(-8.600216863250875e-14 0 0)
(-9.791556323747842e-14 0 0)
(-9.426630236374599e-14 0 0)
(-7.170609510653996e-14 0 0)
(-6.747997512562321e-14 0 0)
(-6.875909749373982e-14 0 0)
(-7.719879704019709e-14 0 0)
(-8.838484755350251e-14 0 0)
(-7.6007457579707e-14 0 0)
(-5.929108388662939e-14 0 0)
(-4.273773559340902e-14 0 0)
(-3.838621145874674e-14 0 0)
(-2.874263203641218e-14 0 0)
(-4.448085333034401e-14 0 0)
(-1.445909892582138e-14 0 0)
(-5.090154600165579e-14 0 0)
(-3.194043795669446e-14 0 0)
(-3.784697359768408e-14 0 0)
(-3.659293206031785e-14 0 0)
(-4.219849773234026e-14 0 0)
(-3.328226240167459e-14 0 0)
(-1.583854461692521e-14 0 0)
(-5.888979059466603e-14 0 0)
(-1.672891410845442e-14 0 0)
(-1.053520295540537e-13 0 0)
(-4.316410971611206e-14 0 0)
(-4.465641914557761e-14 0 0)
(-4.910826660321983e-14 0 0)
(-6.436995211296056e-14 0 0)
(-7.645891253315724e-14 0 0)
(-5.431253898328557e-14 0 0)
(-4.868189248051864e-14 0 0)
(-4.032997584166486e-14 0 0)
(-4.258725060892446e-14 0 0)
(-5.443794313702637e-14 0 0)
(-6.266445562213689e-14 0 0)
(-5.794925944164516e-14 0 0)
(-4.305124597775275e-14 0 0)
(-6.363006760590636e-14 0 0)
(-2.689919097648589e-14 0 0)
(-8.192653363607404e-14 0 0)
(-5.646949042755913e-14 0 0)
(-5.243147667724272e-14 0 0)
(-5.925346264050256e-14 0 0)
(-6.576193821943727e-14 0 0)
(-7.754992867066569e-14 0 0)
(-6.161106073075332e-14 0 0)
(-8.126189162127178e-14 0 0)
(-3.137611926488043e-14 0 0)
(-1.366529063266902e-13 0 0)
(-7.486627978070765e-14 0 0)
(-9.287431625726676e-14 0 0)
(-6.396865882099745e-14 0 0)
(-7.072794270740663e-14 0 0)
(-5.675791998114597e-14 0 0)
(-5.651965208905186e-14 0 0)
(-4.59230010983161e-14 0 0)
(-5.550387844378659e-14 0 0)
(-5.098932890927338e-14 0 0)
(-7.818948985471282e-14 0 0)
(-7.189420133715517e-14 0 0)
(-2.946997612807987e-14 0 0)
(-3.360831320138712e-15 0 0)
(3.385912150895863e-16 0 0)
(1.852219350688434e-14 0 0)
(-4.509533368365408e-14 0 0)
(-1.240247080454115e-14 0 0)
(-6.006858963978609e-15 0 0)
(-6.646420148045916e-16 0 0)
(-1.419575020297691e-14 0 0)
(-1.324267863457575e-14 0 0)
(-4.263741227042018e-15 0 0)
(-7.900461685401441e-15 0 0)
(3.585304755327182e-14 0 0)
(-7.724895870169825e-14 0 0)
(-1.881062306048413e-15 0 0)
(-3.410992981633883e-15 0 0)
(1.003233229892771e-16 0 0)
(8.251593315861151e-15 0 0)
(1.844695101464211e-14 0 0)
(-1.003233229894336e-15 0 0)
(-3.349544946302552e-14 0 0)
(3.333242406316688e-14 0 0)
(-8.087313874468354e-14 0 0)
(-3.849907519712846e-15 0 0)
(1.478514972553624e-14 0 0)
(2.608406397718607e-15 0 0)
(-1.985147753649343e-14 0 0)
(-2.570785151598977e-15 0 0)
(5.284531038456794e-14 0 0)
(-1.001979188354912e-14 0 0)
(8.158794242098138e-14 0 0)
(-1.531184717122941e-14 0 0)
(4.461879789944791e-14 0 0)
(4.19602298402412e-14 0 0)
(3.389674275498255e-14 0 0)
(5.305849744592238e-14 0 0)
(3.721995282900146e-14 0 0)
(8.822182215364599e-14 0 0)
(-2.035309415143632e-14 0 0)
(5.515274681331374e-14 0 0)
(3.838621145875234e-14 0 0)
(3.047320935797687e-14 0 0)
(2.737572676068912e-14 0 0)
(3.053591143484366e-14 0 0)
(4.520819742201968e-14 0 0)
(4.708925972805716e-14 0 0)
(4.234898271682487e-14 0 0)
(3.818556481277297e-14 0 0)
(1.002104592508599e-13 0 0)
(1.667875244697922e-15 0 0)
(5.373567987610014e-14 0 0)
(3.67308766294287e-14 0 0)
(3.166454881846753e-14 0 0)
(4.310140763924495e-14 0 0)
(4.932145366457783e-14 0 0)
(3.091212389605502e-14 0 0)
(1.267835994276159e-14 0 0)
(7.648399336390342e-14 0 0)
(-4.120780491782189e-14 0 0)
(1.874792098360921e-14 0 0)
(1.636524206261482e-14 0 0)
(1.296678949635416e-14 0 0)
(-1.560027672482496e-14 0 0)
(-2.644773602303349e-14 0 0)
(9.643579422336516e-15 0 0)
(-4.622397106728608e-14 0 0)
(-1.358126984966803e-14 0 0)
(-1.277868326575437e-14 0 0)
(-6.884688040137141e-15 0 0)
(4.476928288392162e-15 0 0)
(6.031939794724481e-15 0 0)
(3.010953731213949e-14 0 0)
(3.586558796864266e-14 0 0)
(8.175096782083792e-14 0 0)
(-4.354032217732204e-14 0 0)
(3.205330169505273e-14 0 0)
(3.066131558857948e-14 0 0)
(3.912609596578626e-14 0 0)
(5.108965223225869e-14 0 0)
(7.199452466013673e-14 0 0)
(7.658431668689752e-14 0 0)
(6.228824316092981e-14 0 0)
(1.16099165529269e-13 0 0)
(1.635270164724408e-14 0 0)
(7.385050613542867e-14 0 0)
(8.881122167620773e-14 0 0)
(1.147824219150433e-13 0 0)
(1.332795345911813e-13 0 0)
(1.301569711631401e-13 0 0)
(1.598902960140701e-13 0 0)
(1.253916133211552e-13 0 0)
(1.33254453760439e-13 0 0)
(1.13967294915757e-13 0 0)
(1.117978030560936e-13 0 0)
(1.096157707811038e-13 0 0)
(1.134029762239383e-13 0 0)
(1.185069252810168e-13 0 0)
(9.572099054708947e-14 0 0)
(1.461083795184221e-13 0 0)
(2.824101542146781e-14 0 0)
(7.169355469116095e-14 0 0)
(6.583718071167748e-14 0 0)
(6.790634924832752e-14 0 0)
(5.768591071880182e-14 0 0)
(4.933399407994649e-14 0 0)
(4.655002186699497e-14 0 0)
(2.881787452865283e-14 0 0)
(8.619027486310936e-14 0 0)
(-2.032801332069256e-14 0 0)
(2.725032260693972e-14 0 0)
(3.21787058487891e-14 0 0)
(4.790438672734874e-14 0 0)
(2.104281699698629e-14 0 0)
(-1.567551921706693e-14 0 0)
(-1.492309429465878e-15 0 0)
(-6.211267734570222e-14 0 0)
(-8.30175497735804e-15 0 0)
(6.006858963979038e-15 0 0)
(1.788263232282775e-14 0 0)
(2.23470201958477e-14 0 0)
(2.850436414431193e-14 0 0)
(3.133849801875634e-14 0 0)
(1.453434141806076e-14 0 0)
(5.628138419694846e-14 0 0)
(-5.4099351921937e-14 0 0)
(1.407034604923535e-14 0 0)
(-1.163750546674938e-14 0 0)
(1.269090035813745e-14 0 0)
(2.711237803783697e-14 0 0)
(3.059861351172916e-15 0 0)
(3.661801289107773e-15 0 0)
(8.176350823622855e-15 0 0)
(4.831822043467788e-14 0 0)
(-6.290272351423859e-14 0 0)
(3.122563428039985e-15 0 0)
(2.348819799485227e-14 0 0)
(4.311394805461475e-14 0 0)
(4.076889037974499e-14 0 0)
(5.857628021033205e-14 0 0)
(9.363928159506614e-14 0 0)
(2.988380983541137e-14 0 0)
(4.562203112934943e-14 0 0)
(1.501087720226114e-14 0 0)
(1.304203198859839e-14 0 0)
(-1.247771329678357e-14 0 0)
(-1.536200883272676e-14 0 0)
(-1.139923757465338e-14 0 0)
(-5.16539709240754e-14 0 0)
(9.079260730518913e-15 0 0)
(-1.181808744812988e-13 0 0)
(-6.547350866584058e-14 0 0)
(-6.521015994299269e-14 0 0)
(-5.601803547410011e-14 0 0)
(-7.035173024619025e-14 0 0)
(-6.136025242328047e-14 0 0)
(-5.525307013631229e-14 0 0)
(-4.838092251155378e-14 0 0)
(2.328755134886772e-14 0 0)
(-7.20823075677539e-14 0 0)
(-8.665427023193232e-15 0 0)
(-3.515078429234625e-14 0 0)
(-2.411521876353208e-14 0 0)
(-1.701734366204615e-14 0 0)
(-4.496992952991805e-14 0 0)
(2.871755120565105e-15 0 0)
(-1.120611517789478e-13 0 0)
(-3.975311673447786e-14 0 0)
(-6.835780420177881e-14 0 0)
(-1.561281714019696e-14 0 0)
(-1.194850776801471e-13 0 0)
(-5.827531024136092e-14 0 0)
(-5.274498706158008e-14 0 0)
(-4.345253926970658e-14 0 0)
(-4.376604965404166e-14 0 0)
(-4.153385571753455e-14 0 0)
(2.834133874445612e-15 0 0)
(-1.06856879398889e-13 0 0)
(-4.259979102429388e-14 0 0)
(-3.392182358572964e-14 0 0)
(-3.818556481277367e-14 0 0)
(-3.437327853918254e-14 0 0)
(-3.106260888053726e-14 0 0)
(-2.094249367399901e-14 0 0)
(-4.349016051582574e-14 0 0)
(-5.292055287682427e-15 0 0)
(-1.303325369783662e-13 0 0)
(-5.883962893317363e-14 0 0)
(-6.251397063766184e-14 0 0)
(-8.529990537158356e-14 0 0)
(-8.968905075236494e-14 0 0)
(-9.840463943704505e-14 0 0)
(-8.44847783723006e-14 0 0)
(-7.358715741259607e-14 0 0)
(-9.543256099353931e-15 0 0)
(-1.184066019580184e-13 0 0)
(-6.971216906213787e-14 0 0)
(-6.874655707836656e-14 0 0)
(-7.362477865871715e-14 0 0)
(-6.053258500861987e-14 0 0)
(-6.963692656989307e-14 0 0)
(-6.04448021010404e-15 0 0)
(-1.23322444784501e-13 0 0)
(-7.199452466013739e-14 0 0)
(-9.322544788773181e-14 0 0)
(-8.532498620233415e-14 0 0)
(-9.322544788773513e-14 0 0)
(-9.511905060915647e-14 0 0)
(-9.78904824067255e-14 0 0)
(-1.218802970165314e-13 0 0)
(-5.717175368848717e-14 0 0)
(-1.588870627841741e-13 0 0)
(-8.614011320161464e-14 0 0)
(-8.212718028205538e-14 0 0)
(-8.257863523550449e-14 0 0)
(-8.419634881870351e-14 0 0)
(-8.813403924602234e-14 0 0)
(-1.061295353072266e-13 0 0)
(-1.155724680835841e-13 0 0)
(-4.532106116038427e-14 0 0)
(-1.519145918364201e-13 0 0)
(-8.677967438567304e-14 0 0)
(-9.861782649840406e-14 0 0)
(-9.035369276716947e-14 0 0)
(-7.74245245169261e-14 0 0)
(-7.351191492034976e-14 0 0)
(-9.380230699493404e-15 0 0)
(-1.199866942951026e-13 0 0)
(-7.213246922924757e-14 0 0)
(-6.22631623301856e-14 0 0)
(-4.290076099326552e-14 0 0)
)
;

boundaryField
{
    inlet
    {
        type            calculated;
        value           uniform (-0.0002059070204760632 0 0);
    }
    outlet
    {
        type            calculated;
        value           uniform (-5.21835508390642e-14 0 0);
    }
    frontAndBack
    {
        type            empty;
    }
}


// ************************************************************************* //
