/*--------------------------------*- C++ -*----------------------------------*\
| =========                 |                                                 |
| \\      /  F ield         | OpenFOAM: The Open Source CFD Toolbox           |
|  \\    /   O peration     | Version:  v2012                                 |
|   \\  /    A nd           | Website:  www.openfoam.com                      |
|    \\/     M anipulation  |                                                 |
\*---------------------------------------------------------------------------*/
FoamFile
{
    version     2.0;
    format      ascii;
    class       volScalarField;
    location    "0.015";
    object      p;
}
// * * * * * * * * * * * * * * * * * * * * * * * * * * * * * * * * * * * * * //

dimensions      [1 -1 -2 0 0 0 0];


internalField   nonuniform List<scalar> 
1000
(
101310.5770539159
101309.2891811295
101299.9053020054
101291.7080829756
101283.3500407821
101275.601122129
101268.944749181
101263.9356147123
101260.1371674017
101257.1591964833
101255.5903701118
101255.4824405987
101256.4800389668
101258.6247189718
101262.0224764513
101266.6166580299
101272.2391974699
101278.7059345056
101285.8719252239
101293.6174086489
101301.8140684394
101310.3173709665
101318.984293685
101327.6884366818
101336.3389253678
101344.8807340465
101353.1963352925
101361.1442871142
101368.7250760182
101375.4720536205
101380.5641787619
101384.87382146
101388.2862266998
101390.6978125443
101391.8883998499
101391.8463254346
101390.7791307628
101388.5088464867
101384.8853701565
101379.9267428223
101373.7736237469
101366.6005809896
101358.5814201827
101349.8902679049
101340.698801745
101331.1734276566
101321.4748391872
101311.7415410742
101302.1116351316
101292.7865203573
101283.9515482527
101275.7962638378
101268.9297231682
101263.9052864172
101260.0565199804
101257.0407678726
101255.1545270045
101254.4953768355
101254.9831440978
101256.3723273755
101258.9067921516
101262.6962477849
101267.7096631722
101273.8053090404
101280.7924655777
101288.4707717255
101296.6485408704
101305.1565668013
101313.8568656539
101322.642146954
101331.4319683185
101340.1701709889
101348.7673524498
101357.0469065814
101364.9101210863
101372.1452475289
101378.0012591442
101382.6034479518
101386.5228055592
101389.4859305152
101391.5255480992
101392.4506474638
101392.222007906
101391.0719247962
101388.8325860128
101385.3762950763
101380.6952111644
101374.8894907453
101368.1142015246
101360.547801419
101352.3775318829
101343.7882106991
101334.9551634063
101326.0376324945
101317.1642716947
101308.4609928022
101300.1067500302
101292.2583700843
101285.0704461325
101278.9811438961
101274.2965192606
101270.5027065479
101267.3885759764
101265.1613465373
101263.9013284194
101263.623023765
101264.2165150385
101265.5401502187
101267.6993820139
101270.7551252214
101274.7344494037
101279.6055974175
101285.2889575343
101291.6762103539
101298.64205155
101306.0527572114
101313.7784530551
101321.7059465234
101329.7450632562
101337.7844273213
101345.6384334048
101353.1848682562
101360.2131276772
101366.0645330351
101370.7564916273
101374.817999162
101377.9737595908
101380.2028894691
101381.4257331993
101381.593387584
101380.7653302052
101379.0163603316
101376.2218291926
101372.3217999536
101367.3140052681
101361.2703698598
101354.3186349131
101346.6269736477
101338.3883343966
101329.8051199118
101321.0687745497
101312.3441582013
101303.8123789938
101295.6699875859
101288.0600914069
101281.2650496299
101275.7545792946
101271.5425676204
101268.0095860971
101265.3229863018
101263.5091658683
101262.6939136751
101262.8869376338
101263.7896518966
101265.4655553481
101267.9907722903
101271.4305194922
101275.8031866828
101281.076891831
101287.1806742537
101294.0095615149
101301.4278341554
101309.2840734972
101317.4245372575
101325.7038957487
101333.9792707274
101342.0448040292
101349.7227858375
101356.8668738549
101362.9172026624
101367.6973819106
101371.9312435607
101375.2701527558
101377.7175045727
101379.3425440219
101379.94667753
101379.4583002346
101378.1416711076
101375.8667463352
101372.5496494489
101368.1400286255
101362.6577560963
101356.1857139759
101348.8490973903
101340.8019914725
101332.2304219685
101323.3444270711
101314.3483473112
101305.4636540823
101296.9425512943
101288.9785201669
101281.8419381547
101276.0266973066
101271.6173785918
101267.9290851522
101265.0271979703
101262.9984084364
101261.9335869371
101261.8160302732
101262.4817351103
101263.868161862
101266.0379564698
101269.05136158
101272.9517195064
101277.7425441052
101283.3899063368
101289.8246080223
101296.9455698643
101304.6281351379
101312.7234950429
101321.0682005035
101329.5080756529
101337.8192807586
101345.7346705449
101353.1469200059
101359.5907399898
101364.5475826224
101368.9685919856
101372.5513815383
101375.2908926224
101377.2081537525
101378.1579149461
101378.0828926567
101377.1221711494
101375.2718519184
101372.4366975548
101368.5392373689
101363.5671426677
101357.573776277
101350.6462247722
101342.8980891038
101334.486165663
101325.6091324549
101316.4757387203
101307.3198449205
101298.4343657143
101290.0737573981
101282.5131181608
101276.2838625901
101271.5839183183
101267.7145802577
101264.5994687468
101262.3929792985
101261.0447491662
101260.618114957
101261.0908398583
101262.2169887825
101264.0833461361
101266.737621264
101270.2310367047
101274.5883964199
101279.7977821713
101285.8165645372
101292.5774969591
101299.9858924582
101307.9130138628
101316.2078830707
101324.7189295907
101333.21762456
101341.3821474672
101349.0821120211
101355.9366045727
101361.2068942053
101365.8130397934
101369.6657250293
101372.6738747671
101374.8234567917
101376.1611487749
101376.521588533
101375.8660206416
101374.4085040358
101371.9991383554
101368.5737209468
101364.0986576898
101358.5867661867
101352.0869948119
101344.6869506381
101336.5210451929
101327.7653895788
101318.6156161964
101309.2976206456
101300.1171152911
101291.3788589914
101283.3674182464
101276.6190796114
101271.4919299714
101267.4247647534
101264.077827388
101261.6523201145
101260.0478547634
101259.3629519962
101259.6097918471
101260.5109547118
101262.1114589314
101264.4548244414
101267.5947255727
101271.565044405
101276.3694983938
101281.9864875492
101288.3720800189
101295.4543839755
101303.1323200352
101311.279979521
101319.7484827196
101328.3293104758
101336.7083513685
101344.661020112
101351.906610347
101357.6671164409
101362.4406422167
101366.545033338
101369.8217989775
101372.2847725985
101373.9713019292
101374.7031086467
101374.4076245083
101373.2719881625
101371.2476876802
101368.2626303057
101364.2502408398
101359.1874037695
101353.1029445393
101346.0726829366
101338.2078705827
101329.6524309741
101320.5820160076
101311.208062019
101301.8230941629
101292.7582072728
101284.3131356039
101276.9949168535
101271.3226745154
101267.0187462954
101263.3986996731
101260.6907963029
101258.849945665
101257.9300229233
101257.9040556164
101258.5972232285
101259.9726727284
101262.0544349314
101264.8870690087
101268.5112629054
101272.9449239687
101278.1830811638
101284.1976222979
101290.9357062593
101298.3210947789
101306.2469608506
101314.5747029578
101323.1384872135
101331.6592825486
101339.7982682647
101347.3712991468
101353.7888236402
101358.6909957781
101363.101992355
101366.6810767009
101369.4532868841
101371.3957784231
101372.4749940463
101372.5972152013
101371.7818164626
101370.1399376489
101367.5561238897
101363.9620443334
101359.3178526371
101353.6468018796
101347.0099029724
101339.4856295796
101331.186684738
101322.2750605508
101312.9473823623
101303.4643259444
101294.1604411747
101285.3550198566
101277.4945637569
101271.2211346542
101266.5657679541
101262.6744065945
101259.6495157715
101257.5696031794
101256.3544574963
101256.0320436143
101256.5572121642
101257.7162956649
101259.5693784153
101262.1392909208
101265.4659483891
101269.5763166778
101274.4726323264
101280.1358360731
101286.5294453974
101293.596096525
101301.2481914116
101309.3716679661
101317.8311741868
101326.3818853335
101334.658038677
101342.4948477427
101349.4648573859
101354.7214718691
101359.371750021
101363.2533337515
101366.3122296722
101368.5550022451
101370.0300324023
101370.5491408457
101370.0592815277
101368.7688740882
101366.5605838121
101363.3609882767
101359.1291306004
101353.8720395867
101347.6203314316
101340.4293240872
101332.4006838187
101323.6862518962
101314.4631413542
101304.956709107
101295.489488727
101286.3922206239
101278.0499480694
101271.1269600958
101265.9524035583
101261.7898460768
101258.4362580739
101256.0618077722
101254.5316844737
101253.921945252
101254.2364424244
101255.1900470505
101256.8224905529
101259.1526109573
101262.2162228393
101266.0414860412
101270.6347835254
101275.9817045029
101282.0524993576
101288.8010828302
101296.1612166312
101304.0408423269
101312.3150085352
101320.7931665485
101329.162521271
101337.1465367322
101344.4764174743
101350.3306120285
101355.1122862002
101359.2761150883
101362.6587988546
101365.2555184277
101367.049271485
101367.9307093665
101367.8299240538
101366.8353508622
101364.9671788653
101362.1519707424
101358.3315219788
101353.4719912743
101347.5838715599
101340.7249660638
101332.9936252665
101324.5202087154
101315.4605341506
101306.0135259932
101296.4722376845
101287.1689859811
101278.450045422
101270.9158293254
101265.0972920234
101260.6826112701
101256.9910231263
101254.2723154955
101252.4556952938
101251.5754909117
101251.6043594576
101252.3448570316
101253.763312014
101255.8681324433
101258.6872044979
101262.2489752432
101266.5635994514
101271.6208602606
101277.3947576319
101283.8462543232
101290.9203459923
101298.5357393392
101306.58599708
101314.9351868476
101323.3185131493
101331.3717728555
101338.9409279704
101345.5058945274
101350.4105361611
101354.8925703728
101358.5881532085
101361.4926434858
101363.5720740056
101364.8597278409
101365.1802913312
101364.5051632776
101363.0334881383
101360.6126928462
101357.1701608965
101352.6728357867
101347.1459272956
101340.6457399951
101333.2420832978
101325.0348145962
101316.1721444306
101306.8422964571
101297.3007897094
101287.8685844554
101278.870815686
101270.8119707741
101264.3647400061
101259.5661919753
101255.576767509
101252.4772846687
101250.3642040733
101249.1547042437
101248.8551827366
101249.402432244
101250.5942982835
101252.4786441134
101255.0660265811
101258.3844610419
101262.4494119114
101267.2526339134
101272.7673427908
101278.9540731459
101285.760751307
101293.1180616456
101300.9382016154
101309.1040788012
101317.4023958281
101325.5065432505
101333.2158588309
101340.2031444704
101345.5609130585
101350.1712652703
101354.1223344033
101357.3171494734
101359.7325674486
101361.3620966598
101362.0619426992
101361.7755149929
101360.6328162976
101358.5668162365
101355.4945518254
101351.3816556008
101346.2391583269
101340.0958956883
101333.0010501941
101325.0526418911
101316.40215753
101307.2236664355
101297.733952742
101288.236186083
101279.0493551035
101270.5844845521
101263.5170729253
101258.1591409061
101253.930989173
101250.4841961967
101248.049797289
101246.4923400062
101245.8717059709
101246.1816306156
101247.1401476394
101248.7859815347
101251.1323537819
101254.205861608
101258.0264928448
101262.5901154119
101267.8679194507
101273.8172169176
101280.3876773941
101287.5165653262
101295.1188773114
101303.0865062111
101311.2684256614
101319.3923926093
101327.1385568912
101334.3284069848
101340.3600777198
101344.9628772394
101349.16803169
101352.6460083034
101355.3835933152
101357.2992354773
101358.345071838
101358.4382265626
101357.5963753906
101355.8952351536
101353.2157611088
101349.5096188004
101344.751902742
101338.9607384103
101332.19824821
101324.5647623327
101316.1905915413
101307.2295966463
101297.8767967206
101288.408018729
101279.1308963604
101270.3948439935
101262.7880510556
101256.8365065909
101252.3686428713
101248.6337198098
101245.8477508904
101243.9813594179
101243.0707063622
101243.0759927211
101243.7880970309
101245.1836756898
101247.2768555585
101250.0951025194
101253.663235596
101257.983454295
101263.0327292263
101268.7701362671
101275.1418160218
101282.0794386525
101289.4968186588
101297.2947555866
101305.3447187603
101313.4129408915
101321.1880375849
101328.5100174208
101335.010494468
101339.857715878
101344.1537645426
101347.8289427837
101350.7838598011
101352.9494954945
101354.3274725273
101354.7689506043
101354.2516251507
101352.9252551374
101350.6269992928
101347.267286057
101342.8326851934
101337.3682747722
101330.9357793642
101323.6040229874
101315.474057317
101306.6987217244
101297.4701321233
101288.0342694317
101278.6842660126
101269.7274953273
101261.6635683548
101255.1393777068
101250.2342863506
101246.2737605794
101243.1280896416
101240.9626847778
101239.7213803657
101239.3965369348
101239.8975586546
101241.0358641183
101242.8664653365
101245.4073322411
101248.6911149379
101252.738032659
101257.5387572301
101263.0545489888
101269.2262564373
101275.982816669
101283.240026055
101290.8961463222
101298.8277179125
101306.8513133099
101314.6903393842
101322.0825175035
101328.8105378491
101334.2550999987
101338.4934104421
101342.3309785142
101345.5007849886
101347.9454397108
101349.6050787126
101350.36377581
101350.1938411659
101349.1801162368
101347.2362892677
101344.2620367352
101340.239278136
101335.1879332711
101329.1342905235
101322.1317491775
101314.2926196611
101305.7796836092
101296.7678063313
101287.4622965576
101278.1411407743
101269.0980177486
101260.7279238754
101253.6576159372
101248.2130469204
101244.0597226779
101240.6238829448
101238.1720941398
101236.6117679738
101235.9808881502
101236.2509968996
101237.1432143765
101238.7084799193
101240.9685405189
101243.9571734882
101247.706331604
101252.2220278361
101257.4781970837
101263.4268292262
101270.0036559276
101277.1223480742
101284.6717593671
101292.5273570467
101300.528262817
101308.4163694048
101315.9061179657
101322.8200528373
101328.7466804798
101333.0985846371
101336.9808736084
101340.2996605624
101342.9427371479
101344.796082788
101345.784232529
101345.8897546422
101345.1562616311
101343.5751621454
101340.9906559618
101337.3509082174
101332.6563628768
101326.9448565285
101320.2880398078
101312.7890145367
101304.578374691
101295.8125927021
101286.6847948577
101277.4493252868
101268.3823431126
101259.8010634394
101252.2567045423
101246.2889024202
101241.8213915126
101238.1693202747
101235.3775390764
101233.4978871945
101232.5891128241
101232.5972806839
101233.2677937342
101234.5914891475
101236.5870796395
101239.2880911421
101242.7294600352
101246.9305728736
101251.8884204135
101257.5744104616
101263.9316366841
101270.8775809112
101278.3072921967
101286.0970807403
101294.0908950483
101302.0529239501
101309.7012358536
101316.8011351251
101323.0400531624
101327.9143412934
101331.7029453963
101335.1084158925
101337.8546926776
101339.8467130344
101341.0451635714
101341.3886152073
101340.9113985492
101339.665578645
101337.4391568509
101334.1508962094
101329.8161755968
101324.4875724347
101318.2207366246
101311.0830812248
101303.1843784101
101294.6873322064
101285.7793381073
101276.6794976776
101267.6520003167
101258.9712463487
101251.0711915055
101244.5739785291
101239.6438946383
101235.819692717
101232.689718756
101230.5113154238
101229.2822354296
101228.9774649485
101229.4671295698
101230.5701679536
101232.3303569456
101234.7640432288
101237.9118353811
101241.8081930861
101246.4592306369
101251.8418345464
101257.9150881779
101264.6244595894
101271.8865481847
101279.5788616205
101287.5509943445
101295.5926613941
101303.4148012171
101310.7485923498
101317.3170578229
101322.6778859382
101326.6060232181
101330.0378833702
101332.884970068
101335.0210075873
101336.3921607538
101336.9115432394
101336.6291230128
101335.6266577798
101333.7170854319
101330.8069929386
101326.8859478088
101321.9652721229
101316.0704890018
101309.2736776284
101301.7021498729
101293.5147159421
101284.8738930452
101275.964166657
101267.030131083
101258.3312923538
101250.1949487369
101243.1829212315
101237.7331129014
101233.6392751459
101230.2503405154
101227.7739798858
101226.1991179778
101225.5708177033
101225.8490944345
101226.7305394749
101228.2603475059
101230.4577648353
101233.3540506204
101236.9751666852
101241.3271851956
101246.3999960279
101252.1723659006
101258.6038072219
101265.6246314202
101273.1346769118
101281.0105502473
101289.0746639062
101297.0481462139
101304.6488468658
101311.5999945469
101317.4421463014
101321.8675016784
101325.3320516734
101328.2773118071
101330.4869505855
101331.9432531476
101332.5521068261
101332.3810016665
101331.5645473721
101329.9342022445
101327.3678709571
101323.8141230674
101319.2747195796
101313.7934839019
101307.4463249336
101300.3275976177
101292.5539947856
101284.2731966715
101275.6550811245
101266.9097149696
101258.2881887444
101250.053141897
101242.6366931602
101236.6480330031
101232.18799623
101228.5839494656
101225.7613671295
101223.8241686573
101222.8764997019
101222.8721233682
101223.5442488476
101224.8605060425
101226.8309467518
101229.4845917578
101232.8480493089
101236.9328408437
101241.7334627929
101247.2262426124
101253.371554474
101260.1188188305
101267.3958752267
101275.0962126499
101283.0760001169
101291.1049919366
101298.8985805231
101306.1945340049
101312.5562318672
101317.5311603759
101321.247872317
101324.363888652
101326.7126410333
101328.3001637817
101329.0458576085
101329.0117621006
101328.3784096756
101327.0050677715
101324.7631856731
101321.5821792033
101317.4463905675
101312.376277616
101306.419657527
101299.6602776975
101292.2231230387
101284.2584493549
101275.9137789442
101267.3532573714
101258.8094054294
101250.5318599126
101242.8265487615
101236.2870881595
101231.3085896574
101227.4691992389
101224.3011398737
101222.0793184681
101220.7775089222
101220.4055714728
101220.8872446737
101221.980432793
101223.7345564505
101226.1610953791
101229.2833526605
101233.110845132
101237.633862372
101242.8354153051
101248.6975105071
101255.1887046043
101262.2421054087
101269.752128408
101277.5952747869
101285.5886880546
101293.4580170661
101300.9553328225
101307.7526333994
101313.3034713204
101317.4742845107
101320.8819978849
101323.490553437
101325.2757327349
101326.1601969633
101326.2053011399
101325.6708683225
101324.5149008043
101322.6355065094
101319.9008558053
101316.204612922
101311.5128164651
101305.883969834
101299.4491508683
101292.3627223749
101284.7619007861
101276.7562719346
101268.4513728728
101260.0210126614
101251.7143547317
101243.7837719592
101236.7298233678
101231.1825328421
101227.032472347
101223.588673772
101221.0492071801
101219.3776155512
101218.6512968757
101218.8580886526
101219.7101047142
101221.2396940354
101223.4662330483
101226.3986957639
101230.0217688821
101234.3060009056
101239.2271244778
101244.7723117249
101250.9433334108
101257.689705477
101265.1068337386
101272.439816247
101282.9907754414
)
;

boundaryField
{
    inlet
    {
        type            uniformFixedValue;
        uniformValue    sine;
        uniformValueCoeffs
        {
            frequency       constant 3000;
            scale           constant 50;
            level           constant 101325;
        }
        value           uniform 101323.6440830864;
    }
    outlet
    {
        type            waveTransmissive;
        gamma           1.4;
        fieldInf        101325;
        lInf            2.25;
        value           uniform 101284.9038875723;
    }
    frontAndBack
    {
        type            empty;
    }
}


// ************************************************************************* //
