/*--------------------------------*- C++ -*----------------------------------*\
| =========                 |                                                 |
| \\      /  F ield         | OpenFOAM: The Open Source CFD Toolbox           |
|  \\    /   O peration     | Version:  v2012                                 |
|   \\  /    A nd           | Website:  www.openfoam.com                      |
|    \\/     M anipulation  |                                                 |
\*---------------------------------------------------------------------------*/
FoamFile
{
    version     2.0;
    format      ascii;
    class       volScalarField;
    location    "0.015";
    object      pMean;
}
// * * * * * * * * * * * * * * * * * * * * * * * * * * * * * * * * * * * * * //

dimensions      [1 -1 -2 0 0 0 0];


internalField   nonuniform List<scalar> 
1000
(
101325.0402843854
101325.0198121975
101325.0375564357
101325.0585651641
101325.079868745
101325.1037826282
101325.127472154
101325.1542072318
101325.1805655216
101325.2073472884
101325.2333866714
101325.2580509377
101325.2810581526
101325.3023012011
101325.3207170532
101325.3364600765
101325.3489956375
101325.3581323672
101325.3635724927
101325.3653033597
101325.3632289108
101325.3575646477
101325.3483206719
101325.3358333603
101325.3202351492
101325.3021045998
101325.281447534
101325.2585607235
101325.2336951475
101325.2075536054
101325.1807207057
101325.1540817618
101325.127685462
101325.1020242724
101325.0774486184
101325.0544157424
101325.0333222773
101325.0141551392
101324.9974060707
101324.9835577168
101324.9727274015
101324.9652405606
101324.9611089879
101324.9603907383
101324.9632048738
101324.969420816
101324.9789818178
101324.9918288083
101325.0076804976
101325.0267378925
101325.0479141174
101325.0710764368
101325.0959940486
101325.1218899874
101325.1481166857
101325.1741541436
101325.1996723336
101325.2242462479
101325.2473734912
101325.2688428398
101325.2883509261
101325.3048026894
101325.3186516785
101325.3292207645
101325.3362493243
101325.3395591062
101325.3389280479
101325.3346242378
101325.3266196199
101325.3151283966
101325.3003985342
101325.2828804856
101325.2631728229
101325.2407179711
101325.2159984708
101325.1896414474
101325.1622835701
101325.1348837072
101325.1076616168
101325.0809634319
101325.0551325762
101325.0305251819
101325.0074568045
101324.9864841245
101324.9667090136
101324.9495030925
101324.9347644113
101324.9228031845
101324.9137320729
101324.907518823
101324.9043859814
101324.9042712787
101324.9070301715
101324.9125901443
101324.9210392067
101324.9324557955
101324.9459870691
101324.9609918805
101324.977508838
101324.9954204086
101325.0140678038
101325.0329691657
101325.0517204407
101325.0701132883
101325.0878832747
101325.1047248973
101325.120592228
101325.1342190303
101325.1462569307
101325.1565476205
101325.1646216894
101325.1703681534
101325.173334688
101325.1736173223
101325.1710927263
101325.1657130736
101325.1574934676
101325.1468606947
101325.1342312964
101325.119666433
101325.1022893152
101325.0830811349
101325.0626131543
101325.0413020604
101325.0199415916
101324.9987132662
101324.9778522369
101324.9578110791
101324.9387325254
101324.9212182641
101324.9045027995
101324.8894377068
101324.8763483973
101324.8651547951
101324.8560974409
101324.8492476727
101324.8448029261
101324.8429355685
101324.8436092268
101324.8467802613
101324.8528456809
101324.861531906
101324.8735290518
101324.8862815723
101324.9006985933
101324.9167666743
101324.9338440719
101324.9515767294
101324.9692710205
101324.9867601697
101325.0038024982
101325.0201075573
101325.0355951609
101325.0493779392
101325.0610845568
101325.0715405726
101325.0798857051
101325.0861014129
101325.0897603463
101325.0907129414
101325.088869659
101325.084131697
101325.0763531335
101325.0660351598
101325.0530390893
101325.0393508363
101325.021612683
101325.002047035
101324.9810172009
101324.9590757941
101324.9370894041
101324.9152288705
101324.8937470466
101324.8730907291
101324.853339693
101324.8351253526
101324.8181556413
101324.8020081119
101324.7880196174
101324.7757805489
101324.7655441827
101324.7574081549
101324.7514164259
101324.7478663439
101324.7467815657
101324.7481720015
101324.7523440337
101324.759046857
101324.7704528054
101324.7819773768
101324.7953511415
101324.8103641305
101324.8265932029
101324.8435420833
101324.8605309191
101324.8773838133
101324.8937935159
101324.9094928256
101324.9243894916
101324.9383839212
101324.9495089256
101324.9594343767
101324.967598
101324.9737826545
101324.9776068758
101324.9788151717
101324.9773295241
101324.9730598345
101324.9657213607
101324.9556935586
101324.9425285653
101324.9298335354
101324.912227467
101324.8925849561
101324.8710953479
101324.8486114507
101324.8258586593
101324.8033225012
101324.7811379519
101324.75967953
101324.7391864692
101324.7200047859
101324.7028756289
101324.6857890633
101324.6705252995
101324.6573505564
101324.6459967944
101324.6366815435
101324.629293443
101324.6242004659
101324.6215016226
101324.6211261763
101324.6233917665
101324.6279037147
101324.6382041844
101324.6486227519
101324.6608274368
101324.6746054998
101324.6898662265
101324.7059157126
101324.7221889391
101324.7383572785
101324.7540283743
101324.7691622616
101324.7832856723
101324.7972520351
101324.8081176581
101324.8172572015
101324.8252072038
101324.8312040988
101324.8350192927
101324.8363519986
101324.8350465185
101324.8310937613
101324.8240857555
101324.814339526
101324.8012672217
101324.7884234175
101324.7718036908
101324.7521201716
101324.730295595
101324.7072782601
101324.6836847739
101324.6604122011
101324.6373981369
101324.6150231101
101324.5936809693
101324.573402624
101324.5555024925
101324.5377907732
101324.5213350226
101324.5072307792
101324.494794979
101324.4843239363
101324.4757138995
101324.4691891233
101324.4649058878
101324.462863012
101324.4632678693
101324.4660158366
101324.4733478885
101324.4837745327
101324.4944156734
101324.50695871
101324.5210606475
101324.5361044357
101324.5515924334
101324.5670082027
101324.5819400046
101324.5964667853
101324.6098058849
101324.6231134867
101324.6340296226
101324.6426056877
101324.6501369595
101324.6558397174
101324.6594946351
101324.6608537843
101324.6596120059
101324.655771942
101324.6490785243
101324.6394355106
101324.6268815202
101324.612328579
101324.5981328222
101324.5780206043
101324.5561891179
101324.5326494502
101324.5082818446
101324.4840824687
101324.4602008055
101324.4368247327
101324.4145347888
101324.3931317896
101324.3740338735
101324.3559018901
101324.3384052015
101324.3230180409
101324.3094914437
101324.2978370334
101324.2880502133
101324.2801293248
101324.274272049
101324.2707030119
101324.2691509331
101324.2703588029
101324.2736270884
101324.2849389598
101324.2933494905
101324.3046499155
101324.3173221016
101324.3312409025
101324.3456634544
101324.3602284924
101324.3743944642
101324.3881122082
101324.4007877345
101324.4130819324
101324.4243017627
101324.4324196039
101324.4389369128
101324.4442300956
101324.4475161814
101324.4487310557
101324.4473743294
101324.4434723043
101324.4369421059
101324.4272677106
101324.4150889535
101324.3987510063
101324.3867079457
101324.3663439741
101324.3445379106
101324.3205327519
101324.2953763479
101324.2701148818
101324.2452419993
101324.2208270214
101324.1972834897
101324.1748704665
101324.1540306471
101324.1357909626
101324.1172514676
101324.100035073
101324.085370362
101324.0724479451
101324.0613919018
101324.0521492929
101324.044732604
101324.0395533942
101324.0361705132
101324.0355659922
101324.0355997388
101324.0458759526
101324.0530801626
101324.0627162074
101324.0738483155
101324.0864057661
101324.0996045027
101324.1131964748
101324.1264862263
101324.1392405739
101324.1513560935
101324.1623273932
101324.1737533288
101324.1816459906
101324.1869718199
101324.1917833963
101324.1945991334
101324.1954863875
101324.1940093063
101324.1899348501
101324.1833412154
101324.1736806773
101324.1615293754
101324.1448500114
101324.1317709228
101324.1131781849
101324.0910211206
101324.0668024138
101324.0409728699
101324.0146319242
101323.9886375578
101323.9631515242
101323.9382553704
101323.9147123928
101323.8921078094
101323.8727838358
101323.8535271703
101323.834787107
101323.8188431092
101323.8046277836
101323.7922544589
101323.7817413325
101323.7728525575
101323.7660229849
101323.7609995585
101323.7583437404
101323.7568946758
101323.7619622963
101323.7705043874
101323.7777449664
101323.787396032
101323.7983448707
101323.8101930184
101323.8224540626
101323.834758558
101323.8464638782
101323.8577267279
101323.8676205735
101323.8778227519
101323.8859036749
101323.8905505717
101323.8944266432
101323.8966541791
101323.8969809229
101323.8951717006
101323.8908327966
101323.8838961222
101323.8742249445
101323.8616413384
101323.8458579164
101323.8283160094
101323.8138647762
101323.7906555454
101323.766426166
101323.7399909686
101323.7125654795
101323.6852044214
101323.6584807222
101323.6321761139
101323.6071266144
101323.5830566762
101323.5615154755
101323.541668095
101323.5217947151
101323.5037520977
101323.4880549994
101323.4741151343
101323.4620854151
101323.451732228
101323.4430550017
101323.4363546298
101323.4313357036
101323.4288355703
101323.4270607417
101323.4379835709
101323.442179939
101323.450159514
101323.459258721
101323.4694902124
101323.4801712872
101323.4911611695
101323.5017151746
101323.5117713125
101323.5208174035
101323.5292383761
101323.5375152901
101323.5419321658
101323.5440105623
101323.5454831696
101323.5450137392
101323.5425615733
101323.5378573119
101323.5303662596
101323.5204233714
101323.507252664
101323.4918701427
101323.4707150052
101323.458850699
101323.4353810716
101323.4107138973
101323.3837474673
101323.3553158118
101323.3265145249
101323.2982642984
101323.2705414025
101323.243738896
101323.2182036395
101323.1941418759
101323.1737103735
101323.1528297177
101323.1320853119
101323.1148536648
101323.0992177934
101323.0855341329
101323.073645314
101323.0632143369
101323.0546764849
101323.0475574389
101323.0431581603
101323.0377721115
101323.0459821204
101323.05002316
101323.0553761343
101323.0626843257
101323.0711017958
101323.0801477396
101323.0894872777
101323.0988648074
101323.107534373
101323.1156929633
101323.1224096082
101323.1300570349
101323.1345544561
101323.1350044374
101323.1356748517
101323.1343091985
101323.1311108187
101323.1258364548
101323.1179457765
101323.1074484308
101323.0938780569
101323.0780797419
101323.0571034285
101323.0408288965
101323.0212065211
101322.9953588807
101322.968153088
101322.9389197193
101322.9087489729
101322.8788535002
101322.8496422797
101322.8210060401
101322.7937942762
101322.7676002253
101322.7446649605
101322.7230421833
101322.7005178092
101322.6812353497
101322.6637578173
101322.6482303739
101322.6345400348
101322.6225172057
101322.6119168984
101322.6028929665
101322.595849714
101322.5898492124
101322.5888658634
101322.5965688608
101322.5984270902
101322.6038737599
101322.6102987204
101322.6175140667
101322.6249985007
101322.632741559
101322.640030236
101322.6468383662
101322.6524797981
101322.6578262854
101322.6626002526
101322.6626373987
101322.6612991944
101322.6590299555
101322.6547851884
101322.6486199646
101322.640201254
101322.6289594839
101322.6149618806
101322.5979797659
101322.5785676438
101322.554370188
101322.5411128851
101322.513227737
101322.4858460722
101322.4558893191
101322.4245629924
101322.3929314177
101322.3618638175
101322.3314587771
101322.3022040943
101322.2742500186
101322.2481291731
101322.2255460212
101322.2020757568
101322.1791796414
101322.1599037057
101322.1421353991
101322.1264184319
101322.1125135144
101322.0998984203
101322.0888357502
101322.0789840384
101322.0719890219
101322.0627215666
101322.0729414516
101322.0718425042
101322.0749677796
101322.0792680897
101322.0846615167
101322.0902841292
101322.0961898462
101322.1020052787
101322.1073302284
101322.112007593
101322.1152352774
101322.1199049302
101322.1203617281
101322.1162691827
101322.113305513
101322.1078891217
101322.1008049788
101322.0916509423
101322.0799025167
101322.0653340055
101322.0474488544
101322.0279720601
101322.0013671369
101321.9871553049
101321.9614789171
101321.9327814753
101321.90236932
101321.870263831
101321.8371199847
101321.804259959
101321.7720060534
101321.7406805314
101321.7108099778
101321.6819453735
101321.6571929447
101321.6329126607
101321.6068861063
101321.5855841696
101321.5655623809
101321.5476055954
101321.5315287481
101321.5170583269
101321.5037447704
101321.4914184023
101321.4817322874
101321.4709618124
101321.4720720201
101321.4744881388
101321.473457215
101321.4755963188
101321.4787869389
101321.4823724302
101321.4860797022
101321.489793902
101321.493353019
101321.4964401751
101321.4981653695
101321.5002598608
101321.5008669768
101321.4957285256
101321.4908982286
101321.4843589047
101321.4758699932
101321.4655035566
101321.4529535524
101321.4374296577
101321.4186973017
101321.3976589576
101321.3728758125
101321.3484624719
101321.3303572835
101321.2989874173
101321.2682155828
101321.2350936537
101321.2007006829
101321.1658508615
101321.1313712131
101321.0978520336
101321.0655690788
101321.0347701069
101321.0059887983
101320.9805751685
101320.9532653599
101320.9278478666
101320.9057201701
101320.8850449614
101320.8664820201
101320.8497568103
101320.834320485
101320.8197367864
101320.8064375782
101320.7960156691
101320.783627231
101320.7934649291
101320.7868847147
101320.7870849204
101320.787771685
101320.7895686615
101320.7911828059
101320.7927620564
101320.7943287807
101320.7956953123
101320.7964856617
101320.7957468402
101320.7965332818
101320.7919626349
101320.7835170166
101320.7762468123
101320.7663743993
101320.7547575707
101320.74113969
101320.7249959462
101320.7055688827
101320.682727389
101320.6590234893
101320.6263475627
101320.614517482
101320.5812310019
101320.5496625376
101320.5156564989
101320.4804962638
101320.4441318939
101320.4077296704
101320.3717928524
101320.3372633941
101320.3043360329
101320.2721595437
101320.2451841567
101320.2172546996
101320.1868425406
101320.1626067715
101320.1392580246
101320.1180025018
101320.0986972767
101320.0811421157
101320.0642886218
101320.0479812085
101320.0350369864
101320.0187724813
101320.0228674042
101320.0182777616
101320.0140944744
101320.0124983169
101320.0121926084
101320.0120597445
101320.0115687028
101320.0107733289
101320.0102319892
101320.0094777654
101320.0069244013
101320.0060487708
101320.0020015518
101319.9912814976
101319.9828915303
101319.9718915226
101319.9589457402
101319.9440674567
101319.9270967861
101319.9070623408
101319.8831326602
101319.85781421
101319.8271569479
101319.8037193569
101319.779689582
101319.7446045669
101319.7102327883
101319.6741154676
101319.6369184754
101319.5989140901
101319.5606822149
101319.5238205507
101319.4883324995
101319.4543024739
101319.4230700556
101319.3938553766
101319.3619132614
101319.3338239885
101319.3081619671
101319.2841253751
101319.2620039753
101319.2419175676
101319.2231361118
101319.2044324451
101319.187515151
101319.1726369463
101319.1595456815
101319.1661109168
101319.1550028691
101319.1515249477
101319.1486044451
101319.1469032624
101319.1447333723
101319.141692664
101319.1388279809
101319.1360947821
101319.1330057825
101319.1286145987
101319.1248995762
101319.1151728619
101319.1028943449
101319.0913404022
101319.0771442636
101319.0609237251
101319.04273107
101319.0222194952
101318.9977746738
101318.9698738772
101318.9421342623
101318.9034386801
101318.8942522745
101318.8527863624
101318.8183737165
101318.7808739535
101318.7430133615
101318.70412965
101318.6641984399
101318.6246818289
101318.5867573643
101318.5509024724
101318.5154942104
101318.4856890583
101318.4535933238
101318.4192910862
101318.3917930744
101318.3649867993
101318.3401540194
101318.317165374
101318.2962570141
101318.2757143775
101318.2553031452
101318.2392465019
101318.2171252745
101318.22562616
101318.2126363636
101318.2055074775
101318.1999667563
101318.1962468569
101318.1928612814
101318.1883264364
101318.1829743001
101318.1779349553
101318.1734973739
101318.1663720118
101318.1632424261
101318.1545437198
101318.137674068
101318.1259436272
101318.1106039084
101318.0934611962
101318.0738971007
101318.0525592824
101318.0278822505
101317.9990360422
101317.9693536824
101317.9329479397
101317.9108408162
101317.8804874354
101317.8414117327
101317.8033766262
101317.7643194942
101317.724859691
101317.6844021928
101317.6427743355
101317.6023034682
101317.5638965233
101317.5265170162
101317.493425439
101317.4603660687
101317.4232921322
101317.3924741834
101317.3632396295
101317.3358753946
101317.3100220403
101317.2863706267
101317.2640295945
101317.2417188473
101317.2215524616
101317.2025193431
101317.1895972163
101317.1931712411
101317.1778960331
101317.1707591628
101317.1646118221
101317.1598562065
101317.154923147
101317.1480795818
101317.1408486803
101317.1340877346
101317.1272944705
101317.1197987589
101317.1119879124
101317.0974282055
101317.0817426738
101317.0663516842
101317.0484863709
101317.0282905602
101317.0058387482
101316.9809616725
101316.9522365987
101316.9200971492
101316.8884899361
101316.8443205427
101316.8385964677
101316.7890860594
101316.7516541369
101316.7108631213
101316.6705950839
101316.6300529169
101316.5881061152
101316.5455965428
101316.5043481241
101316.4660701423
101316.4279000637
101316.3956144582
101316.3600605051
101316.3223051574
101316.2920009534
101316.2622813267
101316.2346331333
101316.2084608463
101316.1842310119
101316.1602784677
101316.1374928607
101316.1192037597
101316.09257199
101316.1060088388
101316.08580779
101316.0763958895
101316.067665089
101316.0611741188
101316.0552873709
101316.0485178635
101316.040142359
101316.0308003077
101316.0230274693
101316.0118336724
101316.0072310522
101315.9952716705
101315.9729226356
101315.9586803481
101315.939985777
101315.9196811819
101315.8967537389
101315.8716800138
101315.8420931424
101315.8104787308
101315.7774247088
101315.7368462838
101315.7155674065
101315.6811358922
101315.6380219626
101315.5970024611
101315.5555244063
101315.5142106232
101315.47242812
101315.4299634677
101315.3868818481
101315.345931089
101315.3054250919
101315.2716545256
101315.2368214417
101315.1954177401
101315.1629993275
101315.1315144367
101315.1020028859
101315.0740565739
101315.0485628739
101315.0224122141
101314.9980910216
101314.9766027569
101314.9559109021
101314.9407917428
101314.9492771709
101314.9262911216
101314.9176244852
101314.9091026843
101314.9021071605
101314.8946130882
101314.8861972149
101314.8769673377
101314.8668418321
101314.8553872062
101314.8450861982
101314.8360527131
101314.817814681
101314.7987799195
101314.7814238268
101314.7603560026
101314.736613679
101314.7114056676
101314.6844731693
101314.6492939754
101314.6064710564
101314.554820997
101314.5176420655
)
;

boundaryField
{
    inlet
    {
        type            calculated;
        value           uniform 101325;
    }
    outlet
    {
        type            calculated;
        value           uniform 101314.5330899503;
    }
    frontAndBack
    {
        type            empty;
    }
}


// ************************************************************************* //
