/*--------------------------------*- C++ -*----------------------------------*\
| =========                 |                                                 |
| \\      /  F ield         | OpenFOAM: The Open Source CFD Toolbox           |
|  \\    /   O peration     | Version:  v2012                                 |
|   \\  /    A nd           | Website:  www.openfoam.com                      |
|    \\/     M anipulation  |                                                 |
\*---------------------------------------------------------------------------*/
FoamFile
{
    version     2.0;
    format      ascii;
    class       volScalarField;
    location    "0.015";
    object      rho;
}
// * * * * * * * * * * * * * * * * * * * * * * * * * * * * * * * * * * * * * //

dimensions      [1 -3 0 0 0 0 0];


internalField   nonuniform List<scalar> 
1000
(
1.176271630869638
1.176289662583817
1.176225059502682
1.176155306207587
1.17608106983337
1.17601244578477
1.175954059539501
1.17591016983131
1.175876843336772
1.175850677050152
1.17583675776157
1.175835078915986
1.175842574607453
1.175860069330453
1.175888145341908
1.175926131515273
1.175972678995022
1.176026318691074
1.176085866600592
1.176150322009411
1.176218594884294
1.176289447195429
1.176361647796631
1.17643410862996
1.176506051822585
1.17657701541328
1.176646031730492
1.176711938138821
1.176774747493245
1.176830601044724
1.176872707326305
1.176908317571472
1.176936496279728
1.176956392416748
1.176966206769039
1.176965807537345
1.176956907356597
1.176938077657679
1.176908054704038
1.176866971764721
1.1768159925331
1.176756562241118
1.176690117292481
1.176618096129438
1.176541917344623
1.17646295710519
1.176382546232853
1.17630183377951
1.17622196737798
1.176144620912555
1.176071335690933
1.176003687282047
1.175946729143828
1.175905051745001
1.175873128593109
1.175848117519866
1.17583247698529
1.17582701385624
1.175831064167632
1.175842591848045
1.175863615931755
1.175895046448621
1.175936626283588
1.175987179611989
1.176045124251876
1.17610879826232
1.176176611907372
1.176247162143796
1.176319305022551
1.176392151160021
1.176465033735225
1.17653748717275
1.176608770161232
1.176677418338059
1.176742613248253
1.176802599398136
1.176851150514071
1.176889305802229
1.176921799415412
1.17694636495085
1.176963273953997
1.176970943179714
1.176969047481601
1.176959512622457
1.176940947481271
1.176912293223494
1.176873484514499
1.176825351315986
1.176769178819284
1.17670644616316
1.176638705379725
1.176567488509307
1.176494249013735
1.176420307136366
1.176346729615658
1.176274560574233
1.176205284099461
1.176140200917509
1.176080593338297
1.176030095403785
1.17599124571868
1.175959783177397
1.175933957074349
1.175915486082256
1.17590503637307
1.175902728292392
1.175907650277362
1.175918627541801
1.175936534566033
1.175961876397796
1.175994877338941
1.176035273776026
1.176082405200659
1.176135373031091
1.176193137861257
1.176254590519197
1.176318653829278
1.17638438902529
1.176451048284759
1.176517708063793
1.176582829441074
1.17664539922366
1.1767036714609
1.176752185375752
1.176791085749858
1.176824758722362
1.176850922096283
1.17686940294034
1.176879541005188
1.176880930931233
1.176874065832884
1.176859565798899
1.176836397305609
1.176804063220488
1.176762544444965
1.17671243692293
1.176654799341825
1.17659102564207
1.176522715261109
1.176451546149302
1.176379105539351
1.176306760377843
1.176236012491195
1.176168491910101
1.176105385618586
1.176049035495506
1.176003337311927
1.175968406723259
1.175939107069765
1.175916826414936
1.175901783839156
1.175895022671585
1.175896623459074
1.175904109924934
1.175918008658002
1.175938950881031
1.17596747729506
1.176003740191135
1.176047474891646
1.17609809260188
1.176154722466458
1.176216238685739
1.176281385342232
1.176348887345346
1.176417539471353
1.176486156939386
1.176553032889444
1.176616693996917
1.176675927140922
1.176726090774202
1.176765722909852
1.17680082511118
1.176828507119692
1.176848797296607
1.176862269871658
1.17686727848482
1.176863229510293
1.176852313793797
1.176833453130661
1.176805951966241
1.176769392596183
1.176723939446519
1.176670279294452
1.176609449721287
1.176542727873783
1.17647165581188
1.176397974826702
1.176323379129801
1.176249705166737
1.176179044422989
1.176113001610172
1.176053819267918
1.176005593678992
1.175969026813408
1.175938439119312
1.175914373009221
1.175897547604661
1.175888716655362
1.175887741688788
1.17589326257305
1.175904760630339
1.175922755334157
1.17594774616484
1.175980092391202
1.176019822916573
1.176066656074428
1.176120017681868
1.176179069171624
1.176242776491889
1.176309905381662
1.176379100282827
1.176449082654498
1.176517996460681
1.17658362677171
1.176645083957991
1.176698510568048
1.176739607775628
1.176776261895718
1.176805966084225
1.176828678613096
1.176844573983759
1.176852448105624
1.176851826093513
1.176843861039773
1.176828520595954
1.176805015056339
1.176772701924179
1.176731478695552
1.176681787436557
1.17662434977612
1.176560107172222
1.176490359270333
1.176416753076103
1.176341019251762
1.176265096868096
1.176191414910075
1.176122083682516
1.176059384866521
1.17600772593417
1.175968748895212
1.175936659745778
1.175910825281393
1.175892526126575
1.175881344739681
1.175877806475726
1.175881726929371
1.175891066451148
1.17590654473734
1.175928557351892
1.175957528947282
1.175993665025584
1.176036866488657
1.176086779505543
1.176142846075992
1.17620428064923
1.176270015352467
1.176338797962653
1.176409371452535
1.176479840805442
1.176547537660843
1.176611381138197
1.176668213306121
1.176711909736725
1.176750099146775
1.1767820412523
1.176806981184064
1.176824802784155
1.176835893159789
1.176838881426267
1.176833446284975
1.176821362398572
1.176801386918829
1.176772987387871
1.176735885034323
1.176690185805289
1.176636295144017
1.176574938982367
1.176507231330629
1.176434632015947
1.176358762849919
1.176281496753537
1.176205368727787
1.176132906130713
1.176066469117525
1.176010505548379
1.175967985674925
1.175934255886355
1.17590649879557
1.175886383216908
1.175873076741822
1.175867396543676
1.175869443658339
1.175876917321997
1.175890190868817
1.17590962514104
1.175935665149909
1.175968591715802
1.17600843544178
1.176055016920329
1.176107971510498
1.176166702689682
1.176230371908541
1.176297934772564
1.176368156492018
1.176439307876158
1.176508784376429
1.17657472398029
1.176634799541039
1.176682560912959
1.176722138455182
1.176756167734615
1.176783334932245
1.176803754929252
1.176817737503008
1.17682380469774
1.176821354890855
1.176811939584004
1.176795156536461
1.176770407913015
1.176737141539287
1.1766951654777
1.176644718356262
1.176586428387533
1.176521217546876
1.176450278740198
1.176375068038229
1.176297338373165
1.176219515286035
1.176144344422613
1.176074311645641
1.176013622212732
1.175966581864169
1.175930888530207
1.175900866423366
1.175878408782423
1.175863141826003
1.175855512488155
1.175855297103163
1.17586104580776
1.17587245295824
1.175889717780689
1.175913209712603
1.175943266045229
1.175980035092262
1.176023475379793
1.17607335347865
1.176129230856957
1.176190474952002
1.176256199569518
1.176325255095982
1.176396266210847
1.17646691913091
1.176534404541677
1.176597195855266
1.176650405316785
1.176691049913757
1.17672762161641
1.176757295571482
1.176780279579619
1.17679638440073
1.17680533192701
1.176806345210293
1.176799584884358
1.176785972355139
1.176764550318911
1.176734752073416
1.176696246998823
1.176649227553807
1.17659419919301
1.176531812127483
1.176463000379466
1.176389106708729
1.176311761163273
1.176233125087779
1.176155972671979
1.17608295187018
1.176017765850391
1.175965739851822
1.175927131945233
1.175894859693334
1.175869773098976
1.175852523450352
1.175842445650068
1.175839771691537
1.175844127139189
1.175853739930771
1.175869108331453
1.17589042158752
1.17591801060221
1.175952098840368
1.175992704628464
1.176039669637909
1.176092691014378
1.176151292720371
1.176214748004001
1.176282110705303
1.176352258202875
1.176423160252033
1.176491784026159
1.176556763362563
1.176614554376902
1.176658138224542
1.176696694240758
1.176728876523379
1.176754237638149
1.176772832187261
1.176785061410691
1.176789365231854
1.176785303869689
1.176774605272647
1.176756296580341
1.176729768910363
1.17669468246519
1.176651095220774
1.176599260650845
1.176539636983869
1.176473066719601
1.176400808421227
1.176324330293345
1.176245500734626
1.176166994189845
1.176091553451124
1.176022371931895
1.175964959137215
1.175922045447445
1.175887524009797
1.175859711322448
1.175840018866074
1.175827328740817
1.175822271827717
1.175824880097157
1.175832788809507
1.175846327452252
1.175865652176598
1.175891059893305
1.17592278399097
1.17596087720697
1.176005219785043
1.176055564725874
1.176111529535993
1.176172564592915
1.176237906181185
1.176306517882765
1.176376819441957
1.176446217116849
1.176512418048216
1.176573193772742
1.176621732945693
1.176661378866561
1.176695901652129
1.176723947574788
1.176745476864715
1.176760348699545
1.176767656592054
1.176766820971203
1.176758575038096
1.176743086146247
1.176719745316034
1.176688069782402
1.176647778695291
1.176598958704342
1.176542088658376
1.176477983572451
1.176407723883585
1.176332601185889
1.176254264635384
1.176175144130837
1.176097995439701
1.176025690380867
1.175963208653935
1.17591495423536
1.175878341760607
1.175847725788485
1.175825178135007
1.175810111858716
1.175802811791256
1.175803051191797
1.175809192539919
1.175820956566323
1.17583841293239
1.175861792808323
1.175891331982541
1.175927114494284
1.175969055389349
1.176016938782282
1.176070440641642
1.176129104510209
1.176192255935669
1.176259012002931
1.176328245294308
1.176397759979368
1.176464536170355
1.176527296843743
1.176581730070793
1.176622396094106
1.176659557635002
1.176690198173377
1.176714279442767
1.176731519983576
1.176742195855247
1.176744853612089
1.176739256132635
1.176727054486564
1.17670698362179
1.176678441304579
1.176641153211895
1.176595328040108
1.176541432240946
1.176480044200553
1.176411991438689
1.176338502444891
1.176261137599107
1.176182015486562
1.176103797612088
1.176029180392583
1.175962347916841
1.175908879546883
1.17586908342801
1.175835997247722
1.175810291512436
1.175792766428462
1.175782735245251
1.175780251091936
1.175784789760596
1.175794674636955
1.175810302636186
1.175831761214239
1.175859282593035
1.175892994864031
1.175932829439496
1.175978563944736
1.176029870811336
1.176086317895715
1.176147330073323
1.176212178943881
1.176279893283707
1.1763487042239
1.176415903494155
1.176479827378423
1.176537763144324
1.176582186836857
1.176620412805922
1.176653172033897
1.176679660717884
1.176699687147794
1.176713197630475
1.176719000058728
1.176716625259688
1.176707151076719
1.176690021711779
1.176664549176155
1.176630448305004
1.176587810263015
1.176536873773047
1.176478046205807
1.176412139845131
1.176340410334254
1.176264300657464
1.176185608146917
1.176106846702221
1.176030661685804
1.175960462012383
1.175901850255092
1.175857414824817
1.175822348613158
1.175793762294062
1.175773572193443
1.175760655077236
1.175755507688549
1.175758078091395
1.175766027726236
1.175779677736926
1.175799137692229
1.17582462806363
1.175856314472443
1.175894162457188
1.175937932854716
1.175987271379662
1.176041760352388
1.176100879216579
1.176163922774937
1.176229994293719
1.176297841226027
1.176365206015838
1.176429436558696
1.176489052910936
1.176539065013295
1.176577228921506
1.176612095332236
1.176640932139948
1.176663629969463
1.176679512814814
1.176688183946665
1.17668895628126
1.176681976372762
1.17666787196665
1.176645655946928
1.176614927372138
1.176575479478611
1.176527462209205
1.176471390243848
1.176408095037749
1.176338656653071
1.176264350490362
1.176186793360756
1.1761082723617
1.176031338613005
1.175958890007149
1.175895804952519
1.175846446327899
1.175809391914252
1.175778415810021
1.175755309769489
1.175739830334678
1.175732277551857
1.175732321366696
1.175738227370643
1.175749801953134
1.175767162204186
1.175790535810922
1.175820128476745
1.175855958264808
1.17589783395985
1.175945415907326
1.17599825716018
1.176055790766391
1.176117301719627
1.176181967130441
1.176248720962329
1.176315624643986
1.176380096184603
1.176440809134104
1.176494709226223
1.176534900346997
1.176570520899256
1.176600993170695
1.176625493258654
1.176643449054673
1.17665487412574
1.176658534487402
1.17665424522031
1.176643247982929
1.176624192560488
1.176596336128294
1.1765595670809
1.176514258856828
1.176460922866211
1.176400129348828
1.176332715758801
1.176259949009406
1.176183421804598
1.176105173694632
1.176027635479874
1.175953356333312
1.17588647998272
1.175832371955044
1.175791691157399
1.175758843771335
1.175732754275376
1.175714794748158
1.17570449950452
1.175701805259752
1.175705960636857
1.17571540155449
1.175730584233362
1.175751657612058
1.175778892357932
1.175812456000215
1.175852270964752
1.175898015715041
1.175949199411664
1.176005232429481
1.176065416183432
1.176128906716122
1.176194680012631
1.176261214882559
1.176326217739093
1.176387513890886
1.176443301696782
1.176488446469282
1.176523588843
1.176555408049864
1.176581690245028
1.176601959741334
1.176615720313685
1.176622010882154
1.176620601882899
1.176612196753975
1.176596079822677
1.176571419138844
1.17653806457163
1.176496180996756
1.176445986030841
1.176387922030828
1.176322919812709
1.176252328733766
1.176177598442306
1.176100431181052
1.176023132092217
1.175948136708781
1.175878721086233
1.175820083674984
1.175774928462489
1.175740481860982
1.175711985581487
1.175691650677608
1.175678709390674
1.175673476868278
1.175675717104977
1.175683117073397
1.175696099245584
1.175714843904221
1.17573963107965
1.175770725635316
1.175808177247909
1.175851769506096
1.17590110396812
1.175955647344207
1.176014683398204
1.176077290122032
1.176142434566107
1.176208782481456
1.176274193498509
1.1763362998087
1.176393630182538
1.176442772901913
1.176478857707184
1.176511048201751
1.176538566058958
1.176560481048574
1.17657584791053
1.176584041036367
1.176584915937292
1.176578834224101
1.176565724639914
1.176544295284985
1.17651411617952
1.176475190737696
1.176427832350208
1.176372634735098
1.176310452380384
1.176242367758153
1.176169677991695
1.176093984270497
1.176017395627326
1.175942202240875
1.175871035030361
1.175808465885738
1.175758970947634
1.175721918343592
1.175691628466458
1.175668473519532
1.175652883626853
1.175645346189555
1.175645413892165
1.17565097509934
1.17566195382575
1.175678505201494
1.175700907185487
1.175729449406836
1.175764292481876
1.175805411232003
1.175852568261426
1.175905291326352
1.175962895775161
1.176024510946714
1.17608911083839
1.176155401170997
1.176221426386999
1.176284848666777
1.176343722076644
1.176395455113596
1.17643587201011
1.176467286166221
1.176495523179908
1.176518294175202
1.176534811072921
1.176544748010225
1.176547595713335
1.176543638841973
1.17653330907888
1.17651484857167
1.176487583572448
1.176451641354719
1.176407457570246
1.176355493299776
1.176296307129604
1.17623080888464
1.176160347358152
1.176086476200887
1.176011012153755
1.175936146077289
1.175864153748936
1.175798634462118
1.175744748562999
1.17570385926298
1.175672141551687
1.175646181466237
1.175628113588319
1.17561791941779
1.175615391569807
1.17561945286417
1.175628601544632
1.175643200669646
1.175663385723374
1.175689493398044
1.175721809347456
1.175760384080633
1.175805025655055
1.175855394447229
1.175911037901665
1.175971264051183
1.176035056773055
1.176101168542611
1.176167855397311
1.176232720294981
1.176293534242314
1.176348000797742
1.17639245270679
1.176425024315246
1.176453480551388
1.176477087755509
1.176494799015987
1.176506168059982
1.176510474544062
1.176508132794653
1.176499820705147
1.176483987193614
1.176459857576426
1.176427345144625
1.176386543506335
1.176337663957303
1.176281303789016
1.176218518284895
1.176150623967551
1.176078968185924
1.176005080589744
1.175930989482997
1.175858847053837
1.1757913679565
1.175733212160688
1.175688012151517
1.175654057898989
1.175625949795146
1.175605410472454
1.175592348226599
1.175587136930662
1.175589444959529
1.175596755778564
1.175609444239162
1.175627669886884
1.175651691878959
1.175681725407881
1.175717820656112
1.175759893547742
1.175807767718771
1.175861107093254
1.175919333412088
1.175981615716469
1.176046930439337
1.176113804686145
1.176179925801814
1.176242954155376
1.176300594921503
1.176349038706392
1.176385733698435
1.176414461364915
1.176438882912195
1.176457204679856
1.176469279891832
1.176474328287915
1.176472909491984
1.176466139645871
1.176452621237353
1.176431341769725
1.176401874616036
1.176364234136335
1.176318783406732
1.176266151520121
1.176207120517879
1.176142657692758
1.176073987354237
1.176002517988425
1.175929991514634
1.175858490261814
1.175790192554282
1.175728682548371
1.175679013273877
1.175642021653426
1.175612129268894
1.175588718216477
1.175572650586176
1.175564790335136
1.17556475398566
1.175570328706958
1.175581246033512
1.175597589264365
1.175619599001418
1.175647495812551
1.175681375094984
1.175721190997793
1.175766746942818
1.175817714014444
1.175873672440057
1.175934023474413
1.175997883530022
1.176064059597679
1.176130642169365
1.176195271116913
1.176255772071103
1.176308524775515
1.176349777379301
1.176380596321479
1.176406434043518
1.176425909522716
1.176439072917422
1.176445256018582
1.176444973261927
1.176439721584638
1.176428334069552
1.176409744709084
1.176383368083232
1.176349074153222
1.176307032283431
1.176257638651311
1.176201587350888
1.17613991444659
1.176073865615875
1.176004663950391
1.175933670508298
1.175862813551057
1.175794163488733
1.175730257800295
1.175676020241899
1.17563472842694
1.175602883979313
1.175576607368667
1.175558178915454
1.175547381241779
1.175544296212271
1.175548291292852
1.175557358464118
1.175571907621358
1.175592033884188
1.175617930421388
1.175649676028249
1.175687189984913
1.175730331160277
1.175778950054999
1.175832785588168
1.175891282667358
1.175953565326386
1.176018609091629
1.176084897353878
1.176150154951733
1.176212326079251
1.176268691168672
1.176314719488868
1.176349304189143
1.176377561392453
1.176399192550973
1.176413997121328
1.176421332617108
1.176421709493827
1.176417283391004
1.17640770408935
1.176392126329399
1.176369456075758
1.176338809185827
1.176299900253775
1.176253210035018
1.176199821576204
1.176141012252961
1.176077918882556
1.176011451675275
1.175942491921209
1.175872493882099
1.175803543180292
1.175737756048128
1.175679308967382
1.175633452289194
1.175599301855845
1.175571131773192
1.175550579740556
1.175537352078245
1.175531808629639
1.175534199937699
1.17554232835322
1.175555901820912
1.17557500101906
1.175599677064433
1.175629681204047
1.17566467061869
1.175704378125154
1.175748518062733
1.175796689732336
1.175848025705204
1.175903674650067
1.17595990831648
1.176052033402968
)
;

boundaryField
{
    inlet
    {
        type            calculated;
        value           uniform 1.176395973595895;
    }
    outlet
    {
        type            calculated;
        value           uniform 1.176072890837022;
    }
    frontAndBack
    {
        type            empty;
    }
}


// ************************************************************************* //
