/*--------------------------------*- C++ -*----------------------------------*\
| =========                 |                                                 |
| \\      /  F ield         | OpenFOAM: The Open Source CFD Toolbox           |
|  \\    /   O peration     | Version:  v2012                                 |
|   \\  /    A nd           | Website:  www.openfoam.com                      |
|    \\/     M anipulation  |                                                 |
\*---------------------------------------------------------------------------*/
FoamFile
{
    version     2.0;
    format      ascii;
    class       volScalarField;
    location    "0.015";
    object      T;
}
// * * * * * * * * * * * * * * * * * * * * * * * * * * * * * * * * * * * * * //

dimensions      [0 0 0 1 0 0 0];


internalField   nonuniform List<scalar> 
1000
(
299.993019685402
299.984607507551
299.9732959716901
299.9668108766671
299.9609921307137
299.9555452503836
299.9507224174605
299.9470805679683
299.9443301716165
299.9421835602876
299.9410870027459
299.9411955444805
299.9422385859231
299.944128857472
299.9470317193523
299.950950402315
299.9557309708247
299.9612024945338
299.9672375020882
299.9737363828041
299.9805970016908
299.9877069870792
299.994956738472
300.0022494368356
300.0095143901605
300.0167065136271
300.0237246750667
300.0304467110208
300.0368708869522
300.0425999755878
300.0469357230379
300.0506115436048
300.0535264471872
300.0555909677499
300.056612292446
300.0565895588843
300.0557003410219
300.0537821152257
300.0507127398004
300.0465114563742
300.0412976491438
300.0352192716916
300.028424289641
300.0210611359938
300.0132761082639
300.0052107793952
299.9970014427474
299.9887651181858
299.9806180582599
299.972729810481
299.9652562974244
299.9583571943543
299.9525476877345
299.9482962435336
299.9450388488654
299.9424856522545
299.9408879118123
299.9403289351878
299.9407406293233
299.941915124488
299.9440597188596
299.9472671450123
299.9515109030135
299.9566709091607
299.9625856259422
299.9690853363904
299.9760076489126
299.9832091907316
299.9905730262601
299.9980082345589
300.0054466717305
300.0128408011822
300.0201150081708
300.0271199449707
300.0337722048766
300.0398927593036
300.0448464107405
300.0487393120521
300.0520545579826
300.0545609377695
300.0562861712391
300.0570686881525
300.0568753498217
300.0559026431578
300.0540085587295
300.0510850377963
300.0471253814579
300.0422142145796
300.0364826036383
300.030081411723
300.0231689545746
300.0159015274663
300.0084274281227
300.0008813790221
299.9933722473658
299.9860066032448
299.9789359338816
299.9722930309765
299.9662088197772
299.9610542927281
299.9570886595245
299.9538770215103
299.951240700407
299.949355164514
299.9482884408158
299.948052831431
299.9485552861249
299.9496758724055
299.9515038453863
299.9540907409726
299.9574594241981
299.9615829454496
299.9663938375485
299.9718003332305
299.9776962967892
299.9839684811491
299.9905069167523
299.9972157724572
300.0040187149994
300.0108214863975
300.0174670425356
300.0238520085877
300.0297982455251
300.0347485808767
300.0387178693217
300.0421537059045
300.0448232576958
300.0467089092785
300.0477433182735
300.0478851424584
300.0471846975907
300.0457052389098
300.0433412904603
300.0400420975658
300.0358056644611
300.0306927408929
300.0248112917702
300.018303497598
300.0113325227368
300.0040695636974
299.9966765818067
299.9892930774852
299.9820723348273
299.9751807442577
299.9687394944714
299.9629876698343
299.9583229986055
299.9547573663699
299.9517664785462
299.9494920559983
299.9479564885706
299.9472662962598
299.9474297178407
299.9481939669487
299.9496127844812
299.9517505925276
299.954662562163
299.9583642031156
299.9628284534086
299.9679951628205
299.9737753912274
299.9800541825279
299.9867033111445
299.9935926091038
300.0005990547118
300.0076017269916
300.0144264417753
300.0209228710257
300.0269672524805
300.0320859988537
300.0361300109959
300.0397117286777
300.0425362696039
300.0446065580798
300.0459812099178
300.0464922562236
300.0460791422232
300.0449653981565
300.0430409901675
300.0402349242931
300.0365045426014
300.0318665702219
300.0263910239208
300.0201837164678
300.0133749138629
300.0061219300673
299.9986024318011
299.9909893048749
299.9834699743878
299.976257922682
299.9695169753603
299.9634760800404
299.9585534344905
299.9548207812445
299.9516984149004
299.9492417334436
299.947524170888
299.9466226896221
299.9465231717574
299.9470867739451
299.9482605360433
299.9500974742048
299.9526485585405
299.9559504334136
299.9600060099144
299.96478649092
299.9702332183116
299.9762605497741
299.9827628967372
299.989614246861
299.9966762226439
300.0038183231408
300.0108511291845
300.0175486253061
300.0238200620525
300.0292718514449
300.0334654176028
300.0372055385527
300.0402364513507
300.0425539301081
300.044175804856
300.0449792308769
300.0449157756957
300.0441030934578
300.0425378627631
300.0401394876675
300.0368423805666
300.0326360364338
300.0275655059725
300.0217043623294
300.0151486122246
300.0080308223509
300.0005190239806
299.9927898082195
299.9850410599832
299.9775206958274
299.9704441399344
299.9640443338501
299.9587712393331
299.9547925644659
299.9515169319005
299.9488797343409
299.9470117254212
299.945870304476
299.9455091145251
299.9459093403287
299.9468627622031
299.9484428338394
299.9506899214736
299.9536473500373
299.9573360626345
299.9617459021549
299.9668407052513
299.9725634671289
299.9788339590985
299.9855431434127
299.992563178709
299.9997657481874
300.006957440901
300.0138659537566
300.0203810165665
300.0261804139791
300.0306392707004
300.0345361050329
300.0377954108685
300.0403401926149
300.0421586250637
300.0432902303141
300.043595142699
300.0430405876879
300.0418076332157
300.0397694433337
300.0368716636856
300.0330858112634
300.028422645022
300.0229234763829
300.0166623175641
300.0097527865401
300.0023438037044
299.9946008391369
299.9867150123821
299.9789450448436
299.9715489166535
299.9647675741092
299.9590550968955
299.9547147803905
299.9512716711251
299.9484382058334
299.946384767771
299.9450264077737
299.9444465576291
299.9446555462474
299.9454185008768
299.9467735181622
299.9487574226013
299.9514156224211
299.9547767539129
299.9588439035151
299.9635987152414
299.969003922484
299.9749985899532
299.9814970827241
299.9883927639555
299.9955595761297
300.0028210191343
300.0099112845573
300.0166403776044
300.0227708554361
300.0276445820285
300.0316831189705
300.0351554425746
300.0379275217103
300.0400111071115
300.0414378295035
300.0420568980855
300.0418069442077
300.0408462712343
300.0391338156784
300.0366085559849
300.0332141184445
300.0289308718612
300.023783108647
300.0178348700978
300.0111801757768
300.0039407010056
299.9962649918962
299.988331910444
299.9803889917871
299.9727164809805
299.9655681452384
299.9593732914203
299.9545715353645
299.9509279827719
299.9478632952755
299.9455707672133
299.9440122678441
299.9432334355579
299.9432114574731
299.9437983263878
299.9449628255534
299.9467252839276
299.9491233989916
299.9521915760679
299.9559449211837
299.9603791613216
299.9654704255898
299.9711739062018
299.9774249920067
299.9841331887547
299.9911811249885
299.9984284058217
300.0056388791301
300.0125258595824
300.0189335956077
300.0243633585687
300.0285108443424
300.0322426504775
300.0352705553423
300.0376157923105
300.0392590754169
300.0401720469926
300.0402754462423
300.039585666534
300.038196709918
300.0360108759111
300.0329703136312
300.0290412459485
300.0242432580567
300.018627867498
300.0122613617112
300.0052389936472
299.9976977390305
299.9898039101806
299.9817780659126
299.9739033484922
299.9664500565011
299.9597962351335
299.9544855579944
299.9505444806151
299.9472500873911
299.9446891790688
299.9429282691581
299.9418994834517
299.9416265189444
299.9420711580395
299.9430524917435
299.9446213724761
299.946797106954
299.9496134527511
299.9530931908495
299.9572381556218
299.962032144785
299.9674442014681
299.9734256917224
299.9799023938945
299.986777697757
299.9939369915229
300.0011730465525
300.0081763482325
300.0148075066296
300.0207049102982
300.0251523996924
300.0290867492307
300.0323706513197
300.0349584787662
300.0368558297798
300.0381036673472
300.0385428182561
300.0381284214217
300.0370367843053
300.0351686189344
300.0324617723273
300.028881536521
300.0244337788914
300.0191443068305
300.0130598172986
300.0062662218706
299.9988918997066
299.9910866392843
299.983041091182
299.975028203135
299.9673279405279
299.9602663036571
299.9544057604843
299.9500251416781
299.9465011375871
299.9436619286482
299.9416516355737
299.9403561636592
299.9398399285124
299.9401062064634
299.9409135876409
299.9422956946328
299.9442684570541
299.9468621661952
299.9501006191228
299.9539891654048
299.9585155426182
299.9636544974439
299.9693669455259
299.975596744782
299.9822659045088
299.9892686069785
299.9964435405973
300.0035259827048
300.0102819555303
300.0164840772406
300.0214373267534
300.025482966451
300.0290057555871
300.0318675842875
300.0340644230394
300.0355819249098
300.0363276070702
300.0362423504798
300.0354009684941
300.0338205176176
300.0314388386231
300.0282066403848
300.0240952210698
300.019113367593
300.0133098819193
300.0067678703331
299.9995975316295
299.9919306260357
299.9839354222082
299.9758598978642
299.9679853288658
299.9606048761609
299.9542269104197
299.9493010958614
299.9455636182914
299.9424382241236
299.9401364451639
299.9385983904342
299.9378531514899
299.9378775997121
299.9385045658423
299.9397055256979
299.9414875814909
299.9438743167462
299.9468897767999
299.9505425088464
299.95482380467
299.9597115884243
299.9651727446566
299.9711606417376
299.9776063995945
299.9844198657183
299.9914859401148
299.9985804949402
300.0053953368217
300.0118001729832
300.0173550113947
300.0215048282305
300.0252969543922
300.0284235971296
300.0308808794016
300.0326401057653
300.0337294666087
300.0340006663988
300.0334295171373
300.0321844817454
300.0301364539337
300.027223955943
300.0234189560469
300.0187426979937
300.0132427214212
300.0069779868483
300.0000328815281
299.9925327218596
299.9846367109308
299.9765610441846
299.9685773637602
299.9609609151728
299.9541388409692
299.9486807741116
299.9446182862606
299.9412407064417
299.9386165162552
299.9368274353678
299.9358033783359
299.9355497832165
299.9360131401866
299.9370222785067
299.9386177057484
299.9408083379886
299.9436178598057
299.9470593174623
299.9511256749683
299.9557941949981
299.9610314015435
299.9667931453551
299.9730206855188
299.9796396401261
299.9865508483001
299.9935737497264
300.0004319358856
300.0069556372287
300.012868045866
300.0174014139623
300.0213022381933
300.0246451438595
300.0273481328263
300.0293916684464
300.0307702929792
300.0313623763238
300.0311200599972
300.0301533231709
300.0284054317878
300.0258061594322
300.0223263728598
300.0179753275491
300.0127773273155
300.0067738808305
300.0000478184983
299.992727225463
299.9849593211341
299.9769275079886
299.9688883527004
299.9611118786693
299.9539460888795
299.9479629683817
299.9434268639724
299.9398471317488
299.9369288527371
299.9348676907449
299.9335490027672
299.9330235141838
299.9332859363326
299.93409752253
299.9354910442628
299.9374776769868
299.9400799095163
299.9433146215886
299.9471782618551
299.9516463795279
299.9566827713761
299.9622447644309
299.9682791875129
299.9747140266709
299.9814577231164
299.9883824092724
299.9952576612891
300.0018128226615
300.0078968912604
300.0130006672936
300.0168952438047
300.0204532516566
300.0233959111032
300.0257120865713
300.0273328177028
300.0282176397325
300.0282964571503
300.0275842268743
300.0261449898829
300.0238779971302
300.020742306973
300.016716777116
300.0118166535521
300.0060943969902
299.9996347958274
299.9925480163824
299.9849641723429
299.9770482378009
299.9690336234233
299.9611807231223
299.9537853648293
299.9473455935941
299.9423068892978
299.9385241676969
299.9353619010901
299.9330030378974
299.9314227516936
299.9306516880214
299.9306561715424
299.9312591354275
299.9324407975362
299.9342131037339
299.9365992832979
299.9396203105769
299.9432779973769
299.9475527878926
299.9524099721654
299.957803888716
299.9636766289578
299.9699551761872
299.9765555079193
299.9833687911134
299.9901971505356
299.9967770705181
300.0029732035021
300.0084738840278
300.0125754231276
300.0162104674199
300.0193200858753
300.021820223177
300.0236525208371
300.0248183840158
300.0251919044507
300.0247542227991
300.0236320346549
300.0216875380422
300.0188449058967
300.0150927104617
300.0104690087421
300.0050259311493
299.9988216096321
299.9919414489762
299.9845146934759
299.9767038547776
299.9687170733862
299.9608024539861
299.9532202189145
299.9463934029696
299.940869828099
299.9367168707263
299.9333635402808
299.9307000721487
299.9288665713002
299.9278155188193
299.9275404676974
299.9279647139452
299.9289285685107
299.9304785951469
299.9326299891112
299.9354103613055
299.9388367841693
299.9429013033805
299.9475710573741
299.9527959018904
299.9585156114628
299.9646588432452
299.9711394221516
299.9778528019796
299.9846437013932
299.9912780258086
299.997533845778
300.0032273268972
300.0078345046504
300.0114208373752
300.0146679837017
300.0173500406106
300.0194184868243
300.0208227036621
300.0214646297863
300.0213208564517
300.0204631639276
300.0188185009858
300.0163019491042
300.0128981549912
300.0086238978378
300.0035013292519
299.9975755302368
299.9909414327197
299.9837366949961
299.976109227825
299.9682327405878
299.9603425045258
299.9526871339473
299.9456010801351
299.9396150921581
299.9350053189971
299.931488695351
299.9285794897976
299.9265034622838
299.9251822572723
299.9246480593201
299.9248767867932
299.9256322914356
299.9269576897323
299.9288713791988
299.9314019317886
299.9345763602277
299.938399702417
299.9428498282444
299.9478860238561
299.9534538115259
299.9594800427683
299.9658705713055
299.9725199351006
299.979291928209
299.9859680837621
299.9923067506053
299.9981578081134
300.0031731122481
300.006855705314
300.0101408173754
300.0129490368029
300.0151854520911
300.0167536188454
300.0175897119598
300.0176790015179
300.0170583915931
300.0157205964754
300.0135337604051
300.0104539774833
300.0064815540531
300.0016484188379
299.996015103365
299.9896687528662
299.9827197876326
299.9753005489092
299.9675744296068
299.9597566801329
299.9520810705891
299.9448161859247
299.9384287958644
299.9333759542982
299.9295932533611
299.926500910685
299.924136955997
299.922545329043
299.9217758024606
299.9217827295976
299.9223505225143
299.9234714036085
299.9251612055375
299.927448294059
299.930362214675
299.9339193340761
299.9381170464754
299.9429310785275
299.9483131821278
299.9541934288027
299.9604829078413
299.9670768600004
299.9738431526718
299.9805821728528
299.9870553180027
299.9930640096458
299.9983438031525
300.0024685960746
300.0056745526385
300.0085562265184
300.0108800493567
300.0125656142501
300.0135796837743
300.0138702979339
300.0134665138892
300.0124123765495
300.0105284789885
300.0077460423736
300.0040780178231
299.9995688162199
299.9942654376006
299.9882248306176
299.9815397945475
299.9743479427898
299.9668078152774
299.9591048246157
299.9514625959854
299.9441134532403
299.9374248653987
299.9319237202026
299.9277492920464
299.924511147918
299.92186077809
299.9200161379225
299.9189753631955
299.9187172926585
299.9191319548597
299.9200660180087
299.9215565349208
299.9236173303293
299.9262827595587
299.9295819581163
299.9335200498007
299.9380774027617
299.9432193067798
299.948899523252
299.9550473770219
299.961559110718
299.9683073573177
299.9751140908428
299.9817346490489
299.9879415514893
299.9935004583723
299.9980371521737
300.0013613033367
300.0042654118541
300.0066746223898
300.0084821121903
300.00964235465
300.0100818460394
300.0098428803983
300.0089946335803
300.0073787972627
300.0049162957167
300.0015982486697
299.9974341654727
299.9924455577615
299.9866933264523
299.9802851179204
299.9733552523134
299.9660412118376
299.9584991030803
299.9509359537259
299.943571464935
299.9366827861018
299.9307457025571
299.9261311541214
299.9226646459989
299.9197949513127
299.9176979693556
299.9163643624696
299.9158323135388
299.9160679799194
299.9168144223221
299.9181098930518
299.919970676019
299.9224232156232
299.9254894567646
299.9291744925774
299.9334697062918
299.9383570566766
299.9438021962326
299.9497460554351
299.9561037738931
299.9627708384691
299.9695968812633
299.9763458371926
299.9827789178404
299.9886619345257
299.9936061479766
299.997351197443
300.00028306873
300.0027754363516
300.004645268029
300.0058776035457
300.0063928210611
300.0062480443805
300.0055571762288
300.0041775781227
300.0020059095403
299.9989986054234
299.9951570922351
299.990518377676
299.9851466149331
299.9791215677841
299.9725419134089
299.9655325739963
299.9582372865369
299.950833840566
299.9435347972312
299.9365625444685
299.9302830206325
299.9252121735404
299.9214355440168
299.9183836600953
299.9159934643366
299.9143529989481
299.913550483642
299.9135467905753
299.9141159911068
299.9152306519681
299.9168992732968
299.9191464092935
299.9219945575335
299.9254534293964
299.9295183116038
299.9341691000525
299.9393721794067
299.945084659868
299.9512453835969
299.957764120697
299.9645190648181
299.9713152878102
299.977911892722
299.984086970592
299.9894710665397
299.9936813351155
299.9968266887831
299.9994636285409
300.0014512328335
300.0027946411355
300.0034256665196
300.0033968257635
300.0028608876792
300.0016987442186
299.9998015952111
299.997109674194
299.9936096752578
299.9893188410508
299.9842775579554
299.9785566161988
299.9722617123452
299.9655199482295
299.9584561354484
299.9512091834631
299.9439759192563
299.9369677061719
299.9304436164019
299.9249063787857
299.920690710412
299.9174395175618
299.9147567455718
299.9128752341402
299.911772810682
299.9114578478037
299.9118657748257
299.9127915604507
299.9142770350234
299.9163319026692
299.9189758660981
299.9222169412635
299.9260468555844
299.9304511691769
299.9354145890673
299.9409104327349
299.9468820071388
299.9532398718594
299.9598794366533
299.9666458809601
299.9733069636532
299.9796528450742
299.985405944593
299.9901038472058
299.9936336032263
299.9965173472769
299.99872454585
300.0002347095624
300.0009827519274
300.0010201860057
300.0005665721469
299.9995868638659
299.9979949055926
299.9956793165289
299.9925506337923
299.9885809550372
299.9838207429432
299.9783817496535
299.972395135797
299.965977165826
299.9592201064236
299.9522116435163
299.945095575623
299.9380779366023
299.9313665571424
299.9253790530586
299.9206427988815
299.9170594430983
299.9140427372295
299.9117618205063
299.9101836800785
299.9094458927503
299.9094485275628
299.9098992600656
299.9109684318442
299.9126928339655
299.9150859577733
299.9181658178483
299.9219325212871
299.9263822249594
299.9315496758696
299.9375421958216
299.9444313488389
299.9522065535084
299.9595826415272
299.9673340652528
)
;

boundaryField
{
    inlet
    {
        type            fixedValue;
        value           uniform 300;
    }
    outlet
    {
        type            inletOutlet;
        inletValue      uniform 300;
        value           uniform 299.9676801168512;
    }
    frontAndBack
    {
        type            empty;
    }
}


// ************************************************************************* //
