/*--------------------------------*- C++ -*----------------------------------*\
| =========                 |                                                 |
| \\      /  F ield         | OpenFOAM: The Open Source CFD Toolbox           |
|  \\    /   O peration     | Version:  v2012                                 |
|   \\  /    A nd           | Website:  www.openfoam.com                      |
|    \\/     M anipulation  |                                                 |
\*---------------------------------------------------------------------------*/
FoamFile
{
    version     2.0;
    format      ascii;
    class       volVectorField;
    location    "0.015";
    object      U;
}
// * * * * * * * * * * * * * * * * * * * * * * * * * * * * * * * * * * * * * //

dimensions      [0 1 -1 0 0 0 0];


internalField   nonuniform List<vector> 
1000
(
(-0.06040930545961903 0 0)
(-0.08904551465399592 0 0)
(-0.09613968948221185 0 0)
(-0.1081209597652861 0 0)
(-0.118406285977162 0 0)
(-0.1272726755503417 0 0)
(-0.1334406669043329 0 0)
(-0.1359210659772256 0 0)
(-0.1359109507912957 0 0)
(-0.1340934346180085 0 0)
(-0.1295151171008906 0 0)
(-0.1213894093076885 0 0)
(-0.1121000560903246 0 0)
(-0.1007144602130469 0 0)
(-0.08711317885503968 0 0)
(-0.07146358814162707 0 0)
(-0.05421341965125664 0 0)
(-0.03587962384929971 0 0)
(-0.01692255254815539 0 0)
(0.002247943594335514 0 0)
(0.02124369936459847 0 0)
(0.03969464756258331 0 0)
(0.05725566022577874 0 0)
(0.07362554294112315 0 0)
(0.08860094289418169 0 0)
(0.1020702467282152 0 0)
(0.1138347099359965 0 0)
(0.1237274488771575 0 0)
(0.1317889436442767 0 0)
(0.1370675087157764 0 0)
(0.1386026735453235 0 0)
(0.1376192380176189 0 0)
(0.1346756335957323 0 0)
(0.1297525474163333 0 0)
(0.1227098675681071 0 0)
(0.1131397428042191 0 0)
(0.1029052249696979 0 0)
(0.09101769474397159 0 0)
(0.07727941119337123 0 0)
(0.0618286292424934 0 0)
(0.04510039639671403 0 0)
(0.02756904874325664 0 0)
(0.009628994449711039 0 0)
(-0.008388484438495897 0 0)
(-0.02618913732042078 0 0)
(-0.04350862886216288 0 0)
(-0.06011303298106845 0 0)
(-0.07583606362827922 0 0)
(-0.0905216313391075 0 0)
(-0.1038698494445386 0 0)
(-0.1156034054565635 0 0)
(-0.1253855179994109 0 0)
(-0.1319857582841897 0 0)
(-0.1344379678373971 0 0)
(-0.134242441619817 0 0)
(-0.1323973455191708 0 0)
(-0.128469722260063 0 0)
(-0.121415721143691 0 0)
(-0.113057851636616 0 0)
(-0.1032529102934122 0 0)
(-0.0915286290749701 0 0)
(-0.077609722448611 0 0)
(-0.06159170435789019 0 0)
(-0.04387191835838598 0 0)
(-0.02500381738694625 0 0)
(-0.005573877487321126 0 0)
(0.01387179897976374 0 0)
(0.03287427100167076 0 0)
(0.05108362385683232 0 0)
(0.0682365196215718 0 0)
(0.08412304273593021 0 0)
(0.09862063483211982 0 0)
(0.1115952829737684 0 0)
(0.1226867393866565 0 0)
(0.1317463664615242 0 0)
(0.1385735029913164 0 0)
(0.1416445489993213 0 0)
(0.1415563942589122 0 0)
(0.1396053120681086 0 0)
(0.13576402607788 0 0)
(0.1302892826663365 0 0)
(0.1228328869125414 0 0)
(0.1136980167742912 0 0)
(0.1039370436844021 0 0)
(0.09297056903456324 0 0)
(0.08059315699283044 0 0)
(0.06687733976607838 0 0)
(0.05212289271400724 0 0)
(0.0366919183320569 0 0)
(0.02093872980924855 0 0)
(0.005215352179284452 0 0)
(-0.01014988129910947 0 0)
(-0.02488980338337984 0 0)
(-0.03880314429448518 0 0)
(-0.05176225464801198 0 0)
(-0.06364483732556267 0 0)
(-0.07420944842225297 0 0)
(-0.08325649810260224 0 0)
(-0.09053895230774689 0 0)
(-0.09522139896574976 0 0)
(-0.09691901440964422 0 0)
(-0.09679410191110831 0 0)
(-0.09535445628312593 0 0)
(-0.09251980253314127 0 0)
(-0.08829540349573985 0 0)
(-0.08161532589646404 0 0)
(-0.07450227815955608 0 0)
(-0.06634666565478545 0 0)
(-0.05705773881547747 0 0)
(-0.04650024678460443 0 0)
(-0.03467013876503736 0 0)
(-0.0217332953714253 0 0)
(-0.007962659300374106 0 0)
(0.006325180461858463 0 0)
(0.02079255081678678 0 0)
(0.03510031423283991 0 0)
(0.04892826770962868 0 0)
(0.06198897283992544 0 0)
(0.07408447426455959 0 0)
(0.08504444011330155 0 0)
(0.0945150861711713 0 0)
(0.1023120854569117 0 0)
(0.108240286690895 0 0)
(0.1109888373675071 0 0)
(0.1110264702701423 0 0)
(0.1094399286377726 0 0)
(0.106151675843115 0 0)
(0.1015683558666181 0 0)
(0.09590765929818958 0 0)
(0.0878315169822718 0 0)
(0.07987146273217842 0 0)
(0.07103152518853731 0 0)
(0.06131818216924696 0 0)
(0.0506017180639167 0 0)
(0.03889376077965189 0 0)
(0.02636077326516642 0 0)
(0.01323283954761191 0 0)
(-0.0002414917816486235 0 0)
(-0.01377958121308952 0 0)
(-0.02706427327351965 0 0)
(-0.03980764764692447 0 0)
(-0.05180121476650408 0 0)
(-0.06279880865526709 0 0)
(-0.07250450784329356 0 0)
(-0.08075092671000615 0 0)
(-0.08700695367923243 0 0)
(-0.09030528134715647 0 0)
(-0.0910864702927051 0 0)
(-0.09046517417484735 0 0)
(-0.08845700963649347 0 0)
(-0.08501541681324859 0 0)
(-0.07975587621615104 0 0)
(-0.0729897143288066 0 0)
(-0.0655724434030955 0 0)
(-0.05717379160957329 0 0)
(-0.0476255865176368 0 0)
(-0.03681012589269914 0 0)
(-0.02474206106356628 0 0)
(-0.01157398837604543 0 0)
(0.002451917291807961 0 0)
(0.01704142012984411 0 0)
(0.03185654751277943 0 0)
(0.04651152790739268 0 0)
(0.06059832992062697 0 0)
(0.07378121520047475 0 0)
(0.0857785566601075 0 0)
(0.09612696067338444 0 0)
(0.1045308849127951 0 0)
(0.1109211686797004 0 0)
(0.1140403115470901 0 0)
(0.114217980268936 0 0)
(0.1126838364128761 0 0)
(0.109500259366283 0 0)
(0.1049421161971432 0 0)
(0.09932708003421901 0 0)
(0.09191540556279501 0 0)
(0.08390223178619796 0 0)
(0.07538921499880451 0 0)
(0.06624738893994088 0 0)
(0.05628861938289755 0 0)
(0.04545367965951581 0 0)
(0.03378862578136092 0 0)
(0.02139332893708034 0 0)
(0.008409027265682961 0 0)
(-0.004950834246031429 0 0)
(-0.01839892906633912 0 0)
(-0.03162248292508509 0 0)
(-0.04433493531292276 0 0)
(-0.05619237738498878 0 0)
(-0.06676616614223323 0 0)
(-0.07577004440038218 0 0)
(-0.08268255432223244 0 0)
(-0.08650427042708025 0 0)
(-0.08753516007554767 0 0)
(-0.08702770226556207 0 0)
(-0.08511364292878043 0 0)
(-0.08183122051875398 0 0)
(-0.07725460672853397 0 0)
(-0.07044681518768554 0 0)
(-0.06338583932995848 0 0)
(-0.0553754217070493 0 0)
(-0.04640260749858791 0 0)
(-0.03632921309274258 0 0)
(-0.02508674535408937 0 0)
(-0.01273978576869701 0 0)
(0.000556845598875877 0 0)
(0.01460418766996319 0 0)
(0.02914881077745944 0 0)
(0.04385667489209531 0 0)
(0.05833558452911118 0 0)
(0.07220021516183966 0 0)
(0.08507545427288524 0 0)
(0.09643197397652041 0 0)
(0.105805263780567 0 0)
(0.1130448853315935 0 0)
(0.1170648262145242 0 0)
(0.1177590585425441 0 0)
(0.1164611699525042 0 0)
(0.1134616268232279 0 0)
(0.1089234888366433 0 0)
(0.103313192053981 0 0)
(0.09667755295740578 0 0)
(0.08832187977990963 0 0)
(0.08004722135022645 0 0)
(0.07117718443357857 0 0)
(0.06171000225804048 0 0)
(0.0515266231019843 0 0)
(0.04056953106875238 0 0)
(0.02885848288355122 0 0)
(0.01647585595633468 0 0)
(0.003564181618722846 0 0)
(-0.009676189163731405 0 0)
(-0.02298785682295102 0 0)
(-0.03608177890648891 0 0)
(-0.04858585844696896 0 0)
(-0.05998216902510795 0 0)
(-0.06983947151535742 0 0)
(-0.07762120659058211 0 0)
(-0.08226310869412612 0 0)
(-0.08372473377145345 0 0)
(-0.08337508196065521 0 0)
(-0.08165508959531285 0 0)
(-0.0785666630201232 0 0)
(-0.07426344943819718 0 0)
(-0.06784925130052033 0 0)
(-0.06090710231850864 0 0)
(-0.05319213564704456 0 0)
(-0.0446490112110061 0 0)
(-0.03514054031808733 0 0)
(-0.02457555988408512 0 0)
(-0.01295531320240052 0 0)
(-0.0003634181379665529 0 0)
(0.01307185171799133 0 0)
(0.02716897801985507 0 0)
(0.04167185164652801 0 0)
(0.05625304143823251 0 0)
(0.07052219533818636 0 0)
(0.08406294320111553 0 0)
(0.09636671404529704 0 0)
(0.1067896669942321 0 0)
(0.1149714188101476 0 0)
(0.1201680843251604 0 0)
(0.1216456762097474 0 0)
(0.1206220601882813 0 0)
(0.1178583616837612 0 0)
(0.1135172476293553 0 0)
(0.1080101422425946 0 0)
(0.1016283309566926 0 0)
(0.09330012111145822 0 0)
(0.0850323392461188 0 0)
(0.07628798431591927 0 0)
(0.06713194040037603 0 0)
(0.05740188259615654 0 0)
(0.04699446523779587 0 0)
(0.03588727403998308 0 0)
(0.02412576609089598 0 0)
(0.01177700657145006 0 0)
(-0.001059834355471351 0 0)
(-0.01419919678805182 0 0)
(-0.02738062635154539 0 0)
(-0.04026255093142851 0 0)
(-0.05231329650909495 0 0)
(-0.0629793415943147 0 0)
(-0.07170939289971717 0 0)
(-0.07743352483705289 0 0)
(-0.07957730626181792 0 0)
(-0.0795246205025598 0 0)
(-0.07810524246300386 0 0)
(-0.07516688278279285 0 0)
(-0.07096458245627553 0 0)
(-0.06513364952024364 0 0)
(-0.05817499908878566 0 0)
(-0.05068242065273235 0 0)
(-0.04246949110484319 0 0)
(-0.03341959398274444 0 0)
(-0.0234244772069249 0 0)
(-0.01243769107395265 0 0)
(-0.0004918406995675902 0 0)
(0.01232851190626151 0 0)
(0.02589999943826512 0 0)
(0.04004620593352647 0 0)
(0.05450608605592418 0 0)
(0.06891804934313558 0 0)
(0.08288886336902437 0 0)
(0.09595715525546328 0 0)
(0.1073558673421346 0 0)
(0.1165140467430931 0 0)
(0.1230427610525367 0 0)
(0.1256134162063066 0 0)
(0.1250809531249807 0 0)
(0.1227280797955639 0 0)
(0.1186717746457794 0 0)
(0.1131993669004035 0 0)
(0.1067502310514735 0 0)
(0.09908296702957255 0 0)
(0.09044363368245907 0 0)
(0.08176797103380813 0 0)
(0.0727742180235036 0 0)
(0.06333835890870275 0 0)
(0.05334390584851761 0 0)
(0.04276399792437109 0 0)
(0.03160575589504272 0 0)
(0.01985594738605906 0 0)
(0.007532049060481808 0 0)
(-0.0052421126561659 0 0)
(-0.01825504391694727 0 0)
(-0.03123035462785759 0 0)
(-0.04368975071910196 0 0)
(-0.05501826073838998 0 0)
(-0.06465191367572623 0 0)
(-0.07155233835580126 0 0)
(-0.07464556279520679 0 0)
(-0.0750554708895753 0 0)
(-0.07398129157925021 0 0)
(-0.07127906782454291 0 0)
(-0.0672424585545522 0 0)
(-0.06204017773296936 0 0)
(-0.05493377571300046 0 0)
(-0.04769079509428188 0 0)
(-0.03968683087175604 0 0)
(-0.03097253170135156 0 0)
(-0.02143939426289643 0 0)
(-0.01099924995892906 0 0)
(0.0003576237270926202 0 0)
(0.01258429683854523 0 0)
(0.02560687221582505 0 0)
(0.03930958943065802 0 0)
(0.05349135758761563 0 0)
(0.06785433500002783 0 0)
(0.08204532201116536 0 0)
(0.09561900752544783 0 0)
(0.1078348666650068 0 0)
(0.1179974508667705 0 0)
(0.1257971787759954 0 0)
(0.1297396051601376 0 0)
(0.1300356827893382 0 0)
(0.128202343941987 0 0)
(0.1244453457477181 0 0)
(0.1191292460888236 0 0)
(0.1127446509603782 0 0)
(0.105630248489026 0 0)
(0.09652198919181133 0 0)
(0.087973585013235 0 0)
(0.07896140221518251 0 0)
(0.06966131735178159 0 0)
(0.05998978460503559 0 0)
(0.04986454016712442 0 0)
(0.03921430789371119 0 0)
(0.0279884158324449 0 0)
(0.01618558854592325 0 0)
(0.003875956714758155 0 0)
(-0.008808410665728949 0 0)
(-0.02167112737113527 0 0)
(-0.03431704083846849 0 0)
(-0.04613038256569146 0 0)
(-0.05652755548103347 0 0)
(-0.06456766221769149 0 0)
(-0.06889010175396629 0 0)
(-0.0699581420167833 0 0)
(-0.06926229233923054 0 0)
(-0.06700090937920149 0 0)
(-0.06331863230483549 0 0)
(-0.05848724257025058 0 0)
(-0.05159268045470292 0 0)
(-0.04443835921030061 0 0)
(-0.03660122584147382 0 0)
(-0.02812718679477049 0 0)
(-0.01893563512312876 0 0)
(-0.008940173280708841 0 0)
(0.001896967866644292 0 0)
(0.0135638794217368 0 0)
(0.02602947148713 0 0)
(0.03922965819509072 0 0)
(0.05302962368444667 0 0)
(0.06720211366286601 0 0)
(0.08142011451430324 0 0)
(0.09527171063355463 0 0)
(0.1081682891768218 0 0)
(0.1192953657049656 0 0)
(0.1281075688679828 0 0)
(0.1336751108985731 0 0)
(0.1351340948954613 0 0)
(0.1338196030177672 0 0)
(0.1305875036264711 0 0)
(0.125665399720409 0 0)
(0.1194060385011929 0 0)
(0.1122278678161822 0 0)
(0.1035761868506159 0 0)
(0.09461161126401774 0 0)
(0.08550927908230686 0 0)
(0.07629135311212261 0 0)
(0.06682523543937151 0 0)
(0.0569936576363519 0 0)
(0.04672196810235087 0 0)
(0.03597790090535047 0 0)
(0.02473642816794837 0 0)
(0.01298185838797742 0 0)
(0.000762392408481636 0 0)
(-0.01178233316682449 0 0)
(-0.02435361576298813 0 0)
(-0.03640317667161638 0 0)
(-0.04732907741359224 0 0)
(-0.05632203343574618 0 0)
(-0.06200206941454117 0 0)
(-0.0639525211722231 0 0)
(-0.06371635534194212 0 0)
(-0.06198946356623719 0 0)
(-0.05864318420855296 0 0)
(-0.05401229718382392 0 0)
(-0.04768874293576054 0 0)
(-0.04048361880612606 0 0)
(-0.03277570328839336 0 0)
(-0.0244985788373145 0 0)
(-0.01558499122334431 0 0)
(-0.005960885806041656 0 0)
(0.00442808745139511 0 0)
(0.01559534425582131 0 0)
(0.02753263254170918 0 0)
(0.04021366865399017 0 0)
(0.05356407266077508 0 0)
(0.06741796606062758 0 0)
(0.08150117440719284 0 0)
(0.09547515747317954 0 0)
(0.1088579790193402 0 0)
(0.1207819271103691 0 0)
(0.130522946893954 0 0)
(0.1376654527420067 0 0)
(0.1406094610815543 0 0)
(0.1400884100788714 0 0)
(0.1375398165514144 0 0)
(0.1330957909937991 0 0)
(0.1270845858823214 0 0)
(0.1199739081851095 0 0)
(0.1119554779786844 0 0)
(0.1024580485873386 0 0)
(0.09342285401382998 0 0)
(0.08417086309419139 0 0)
(0.07474556280927938 0 0)
(0.06504804159623187 0 0)
(0.05504894939954718 0 0)
(0.04473099445952262 0 0)
(0.03401356067756238 0 0)
(0.02279857752166589 0 0)
(0.01108001605947498 0 0)
(-0.001044174862921989 0 0)
(-0.01337639939136668 0 0)
(-0.02548057632180845 0 0)
(-0.03676214465248698 0 0)
(-0.04654602407461213 0 0)
(-0.05355341264368132 0 0)
(-0.05665839992021402 0 0)
(-0.0570501827774862 0 0)
(-0.05588081989866598 0 0)
(-0.05295389400803872 0 0)
(-0.04860709631508138 0 0)
(-0.04300678368135346 0 0)
(-0.03567105682432698 0 0)
(-0.02816797485664424 0 0)
(-0.02002391537886015 0 0)
(-0.01131152605452191 0 0)
(-0.001976203041974822 0 0)
(0.00804348060971361 0 0)
(0.01877525887260118 0 0)
(0.03022805962461934 0 0)
(0.04240313342075234 0 0)
(0.0552689089052947 0 0)
(0.0687198426868473 0 0)
(0.08255541374553239 0 0)
(0.09648333882937266 0 0)
(0.1100739690478201 0 0)
(0.1226084739710559 0 0)
(0.1332829319208915 0 0)
(0.1416297305313935 0 0)
(0.1462452591471623 0 0)
(0.1468814953823774 0 0)
(0.1450354130171343 0 0)
(0.1411376423525295 0 0)
(0.1355450248281835 0 0)
(0.1286544557956293 0 0)
(0.1208815034367916 0 0)
(0.1113536792669098 0 0)
(0.1021269374055787 0 0)
(0.09268902783558705 0 0)
(0.0832031753588585 0 0)
(0.07359749314061476 0 0)
(0.06383336399152027 0 0)
(0.05383271234655473 0 0)
(0.04348795222812912 0 0)
(0.0327139203679821 0 0)
(0.02148850735067362 0 0)
(0.009841121779754507 0 0)
(-0.002135951757490591 0 0)
(-0.01412920809129355 0 0)
(-0.02559315952941757 0 0)
(-0.03593596464470762 0 0)
(-0.04405449356411015 0 0)
(-0.04850329071262001 0 0)
(-0.04968158244585219 0 0)
(-0.04904418463212517 0 0)
(-0.04675674554032373 0 0)
(-0.04292754021286019 0 0)
(-0.03786501761596899 0 0)
(-0.03068359044073385 0 0)
(-0.02329042994765054 0 0)
(-0.01525699768459474 0 0)
(-0.006691106949418574 0 0)
(0.00242781860071477 0 0)
(0.01215121862261915 0 0)
(0.0225126734904219 0 0)
(0.03352304076313681 0 0)
(0.04519761856079547 0 0)
(0.05754592858351071 0 0)
(0.07052667953448555 0 0)
(0.08400235852445592 0 0)
(0.09772508338350797 0 0)
(0.1113564493324244 0 0)
(0.1243569712910636 0 0)
(0.135833911519593 0 0)
(0.145099019824776 0 0)
(0.1515162922186862 0 0)
(0.1536730353145158 0 0)
(0.1526095814838814 0 0)
(0.1495273644650857 0 0)
(0.1445527174124496 0 0)
(0.1379957017839236 0 0)
(0.1303121523376105 0 0)
(0.1214441775893515 0 0)
(0.1116925655522037 0 0)
(0.1021813996021714 0 0)
(0.092659577281408 0 0)
(0.08309740731233144 0 0)
(0.07341144205221437 0 0)
(0.06355570641973855 0 0)
(0.05349486728986858 0 0)
(0.04315885943879803 0 0)
(0.03244985211240363 0 0)
(0.02130935751904325 0 0)
(0.009769886261934457 0 0)
(-0.001959893176577081 0 0)
(-0.01342529144582523 0 0)
(-0.02407811700477157 0 0)
(-0.0330593666542817 0 0)
(-0.03892869587846347 0 0)
(-0.04113506290198284 0 0)
(-0.04109450386433988 0 0)
(-0.03951766014302645 0 0)
(-0.03621960365061459 0 0)
(-0.03151619980275543 0 0)
(-0.02501878422087161 0 0)
(-0.01758690821750831 0 0)
(-0.009662679433094165 0 0)
(-0.001212394958114566 0 0)
(0.007759945766555598 0 0)
(0.01726711209036957 0 0)
(0.02733013432320577 0 0)
(0.03796428193548246 0 0)
(0.04919404804103997 0 0)
(0.06104818760313153 0 0)
(0.07352250652371704 0 0)
(0.08653916293401848 0 0)
(0.09993086654612156 0 0)
(0.1134416583460386 0 0)
(0.1266262486321313 0 0)
(0.1386886115734804 0 0)
(0.1488557336529395 0 0)
(0.1566854481246033 0 0)
(0.1605316447740185 0 0)
(0.1606131442062028 0 0)
(0.158443519087159 0 0)
(0.1542175358999085 0 0)
(0.1482366757562919 0 0)
(0.140907425709639 0 0)
(0.1326761700881566 0 0)
(0.1225064488756258 0 0)
(0.1131222146509652 0 0)
(0.1035071642232068 0 0)
(0.09383675567211369 0 0)
(0.0840865609756801 0 0)
(0.07428919077854906 0 0)
(0.06443290329541029 0 0)
(0.05440090571136786 0 0)
(0.04403707049005072 0 0)
(0.03326468205376419 0 0)
(0.02209891935223943 0 0)
(0.01064386478597257 0 0)
(-0.0007730614468634365 0 0)
(-0.01165491189508909 0 0)
(-0.02134114888268509 0 0)
(-0.0285263643170166 0 0)
(-0.03203331455799075 0 0)
(-0.03275549198896457 0 0)
(-0.03187673623512241 0 0)
(-0.029238840621679 0 0)
(-0.02502798818316643 0 0)
(-0.01940338289628175 0 0)
(-0.01190848646941725 0 0)
(-0.004210176547064726 0 0)
(0.004143477570601414 0 0)
(0.01301577183119695 0 0)
(0.02238573610520659 0 0)
(0.03225047178908653 0 0)
(0.04260551965649176 0 0)
(0.05345933886960743 0 0)
(0.0648406676823787 0 0)
(0.07677868441714014 0 0)
(0.08926342803680119 0 0)
(0.1022024774377907 0 0)
(0.11540016230652 0 0)
(0.1285281058530606 0 0)
(0.1409986830404104 0 0)
(0.1519643217614373 0 0)
(0.1607661276622925 0 0)
(0.1665448678549405 0 0)
(0.1681890737582214 0 0)
(0.166913061937312 0 0)
(0.1636640830486823 0 0)
(0.1585263295556406 0 0)
(0.1517732190321565 0 0)
(0.1438154610376959 0 0)
(0.1342447649920382 0 0)
(0.1245437588501889 0 0)
(0.1148236581474823 0 0)
(0.1051243249435688 0 0)
(0.09542241256577812 0 0)
(0.0857444307434478 0 0)
(0.07605946442085849 0 0)
(0.06625996738642884 0 0)
(0.05622946367235621 0 0)
(0.04589463252854564 0 0)
(0.03521251861037058 0 0)
(0.02418735840240911 0 0)
(0.01302771118616616 0 0)
(0.002154931883648785 0 0)
(-0.007901566319354231 0 0)
(-0.01604351211685236 0 0)
(-0.02087900128649693 0 0)
(-0.02248393907852359 0 0)
(-0.02221051350836772 0 0)
(-0.02034379148728852 0 0)
(-0.01683607694115426 0 0)
(-0.01191029170485367 0 0)
(-0.004757559079339237 0 0)
(0.002792592225760112 0 0)
(0.01102074558112773 0 0)
(0.01980124034431636 0 0)
(0.02908011183055076 0 0)
(0.03883427362996255 0 0)
(0.04903548671036322 0 0)
(0.05965095276429261 0 0)
(0.07068194224381824 0 0)
(0.08216653011418457 0 0)
(0.09413359552819262 0 0)
(0.1065495555741528 0 0)
(0.1193009864141645 0 0)
(0.1321807870679693 0 0)
(0.1447434123760857 0 0)
(0.1562054380309385 0 0)
(0.1658580602516279 0 0)
(0.1731368970058166 0 0)
(0.1764473335617505 0 0)
(0.1762826606765818 0 0)
(0.1740577963131292 0 0)
(0.1698619872528883 0 0)
(0.1638288411849241 0 0)
(0.156305872481651 0 0)
(0.1474906067051057 0 0)
(0.1374780110013606 0 0)
(0.127844775292489 0 0)
(0.1181534575015499 0 0)
(0.1084069996109644 0 0)
(0.09860821182427282 0 0)
(0.0888167842098659 0 0)
(0.07904686129463478 0 0)
(0.0692118040259971 0 0)
(0.0591587716776872 0 0)
(0.04877008885605294 0 0)
(0.03802210028724001 0 0)
(0.02704157935245703 0 0)
(0.01617021542246951 0 0)
(0.005866948673963999 0 0)
(-0.003076245812243846 0 0)
(-0.009285605565212103 0 0)
(-0.01203492981908231 0 0)
(-0.01244972375726078 0 0)
(-0.01135824947709201 0 0)
(-0.008567013147951174 0 0)
(-0.004225924962840467 0 0)
(0.002080190518882716 0 0)
(0.009479187978033486 0 0)
(0.01748063016088927 0 0)
(0.02612205582561243 0 0)
(0.03533389134634201 0 0)
(0.04503917395551616 0 0)
(0.05516919440171497 0 0)
(0.06566312834205715 0 0)
(0.07648853073161987 0 0)
(0.08764793171119965 0 0)
(0.09916303101969527 0 0)
(0.1110463700951637 0 0)
(0.1232626688323917 0 0)
(0.1356937087196687 0 0)
(0.1480461784616764 0 0)
(0.1597359449836998 0 0)
(0.1700321648776488 0 0)
(0.1782629903395327 0 0)
(0.1833571277681298 0 0)
(0.1846504754790901 0 0)
(0.1834465027754607 0 0)
(0.1803754443543691 0 0)
(0.1753556257032016 0 0)
(0.1686440533082027 0 0)
(0.1606336504963489 0 0)
(0.1506971375340762 0 0)
(0.1412810773104468 0 0)
(0.1316078471075086 0 0)
(0.1217990330483528 0 0)
(0.1119396884861115 0 0)
(0.102157748814776 0 0)
(0.09246389283668695 0 0)
(0.08272901530726587 0 0)
(0.07279226570964754 0 0)
(0.0625685901234793 0 0)
(0.05204007619626635 0 0)
(0.0412468476522116 0 0)
(0.03041888996612125 0 0)
(0.01994947678711276 0 0)
(0.01041551571630274 0 0)
(0.003054062725719745 0 0)
(-0.0009602661869562711 0 0)
(-0.002129459995630619 0 0)
(-0.001688869760491803 0 0)
(0.000324899891903394 0 0)
(0.003979892571310283 0 0)
(0.009279814767879596 0 0)
(0.01651145754292195 0 0)
(0.02415531616194685 0 0)
(0.0325758289186211 0 0)
(0.04162614752116571 0 0)
(0.05123593627541759 0 0)
(0.06133760273901531 0 0)
(0.07183368471680288 0 0)
(0.08261576346560519 0 0)
(0.09361692176783444 0 0)
(0.1048373244636786 0 0)
(0.1163077186085672 0 0)
(0.1280241148335375 0 0)
(0.139928913991208 0 0)
(0.1518750119782102 0 0)
(0.1634573972342971 0 0)
(0.1740266506939841 0 0)
(0.1829757520996199 0 0)
(0.189509630893473 0 0)
(0.1923269819107078 0 0)
(0.192197937007006 0 0)
(0.1902503420252697 0 0)
(0.1863865395824708 0 0)
(0.1806934954519239 0 0)
(0.1734062651468666 0 0)
(0.1642224974480218 0 0)
(0.154872098397798 0 0)
(0.1453365580521388 0 0)
(0.1356240913870225 0 0)
(0.1258046367311893 0 0)
(0.1160023089765401 0 0)
(0.1062406659787822 0 0)
(0.09645156204013317 0 0)
(0.08654793567481177 0 0)
(0.07644931658367714 0 0)
(0.06608287713626949 0 0)
(0.0554224215313603 0 0)
(0.04462071992409587 0 0)
(0.03403575038581039 0 0)
(0.02412597227493361 0 0)
(0.01582276788809598 0 0)
(0.0104721117730613 0 0)
(0.008387539694158367 0 0)
(0.008271489736695222 0 0)
(0.009591777328621163 0 0)
(0.01250864694342453 0 0)
(0.01692932055546269 0 0)
(0.02370274730901603 0 0)
(0.03096970632092021 0 0)
(0.03905991361846362 0 0)
(0.04786159028060088 0 0)
(0.05730460970544086 0 0)
(0.06731776267449274 0 0)
(0.07778577391721266 0 0)
(0.08856967039343804 0 0)
(0.09956450561021074 0 0)
(0.1107130519361196 0 0)
(0.1219832378485644 0 0)
(0.1333529081920352 0 0)
(0.1448031750179496 0 0)
(0.1562825373869644 0 0)
(0.1675490026088148 0 0)
(0.1781080747715797 0 0)
(0.1874273275305447 0 0)
(0.1947620421645619 0 0)
(0.1989970054339154 0 0)
(0.2000475894446384 0 0)
(0.1991280731784811 0 0)
(0.196500038727903 0 0)
(0.191974169598034 0 0)
(0.1856237360880309 0 0)
(0.1773516465060951 0 0)
(0.168278295630104 0 0)
(0.1590609782013939 0 0)
(0.1495420849343097 0 0)
(0.1397516214604784 0 0)
(0.1298399231606874 0 0)
(0.1199488621972103 0 0)
(0.1101130168437993 0 0)
(0.1002433739466508 0 0)
(0.09019203434916197 0 0)
(0.0798634632194231 0 0)
(0.06925272366429105 0 0)
(0.05846033846155035 0 0)
(0.04777212768010308 0 0)
(0.0375986252681 0 0)
(0.02858426280858598 0 0)
(0.02198087677568444 0 0)
(0.01874683041175416 0 0)
(0.01803131564942397 0 0)
(0.0187768749835183 0 0)
(0.02104745677602524 0 0)
(0.02487399119727423 0 0)
(0.03076148457334912 0 0)
(0.0377626261323948 0 0)
(0.04546172253298289 0 0)
(0.05390826764897466 0 0)
(0.06306364467945795 0 0)
(0.07286477297336323 0 0)
(0.08321839398694809 0 0)
(0.09398640644220088 0 0)
(0.1050144895588211 0 0)
(0.1161756059905252 0 0)
(0.1273968891785777 0 0)
(0.1386443128798582 0 0)
(0.1498728664260625 0 0)
(0.1610207591025339 0 0)
(0.171953781566578 0 0)
(0.182312531983866 0 0)
(0.1916557198221541 0 0)
(0.1994607002871672 0 0)
(0.2047536416452667 0 0)
(0.2068451824990782 0 0)
(0.2067779693996561 0 0)
(0.2052036510648668 0 0)
(0.2018507758643165 0 0)
(0.1966990839181308 0 0)
(0.1895610538025111 0 0)
(0.1812085273289736 0 0)
(0.1725054917448577 0 0)
(0.1632814664202387 0 0)
(0.1536377903377514 0 0)
(0.1437692167256197 0 0)
(0.1338263355294837 0 0)
(0.1238259477924882 0 0)
(0.1136934031095179 0 0)
(0.1033556391452221 0 0)
(0.09278552821485918 0 0)
(0.08198583823262556 0 0)
(0.07100284868261471 0 0)
(0.06006262109458523 0 0)
(0.04957630170565067 0 0)
(0.04001872581050846 0 0)
(0.03234319566181447 0 0)
(0.02785779741707271 0 0)
(0.02645350506109926 0 0)
(0.02674993274747633 0 0)
(0.02845733739786046 0 0)
(0.03168599749804379 0 0)
(0.03650155292660585 0 0)
(0.04332707995400648 0 0)
(0.05055924966184987 0 0)
(0.05862835119397025 0 0)
(0.0674376744516894 0 0)
(0.07696807318974086 0 0)
(0.08714616320330017 0 0)
(0.09781313369190336 0 0)
(0.1087842034490628 0 0)
(0.1199225492374099 0 0)
(0.1311467696383339 0 0)
(0.1423835303138132 0 0)
(0.1535406058417656 0 0)
(0.1645377867071145 0 0)
(0.1752939249888045 0 0)
(0.1855403181779469 0 0)
(0.1948749641647479 0 0)
(0.2029494814011468 0 0)
(0.2089317921894393 0 0)
(0.2118748127914829 0 0)
(0.2124711950365134 0 0)
(0.2116516759206531 0 0)
(0.209279215927859 0 0)
(0.2052397662622485 0 0)
(0.199285170849161 0 0)
(0.1916083655226171 0 0)
(0.1834277402127816 0 0)
(0.1745426664186855 0 0)
(0.1651216766345227 0 0)
(0.1553345352628868 0 0)
(0.1453214761807734 0 0)
(0.1351672606418513 0 0)
(0.1248977551102637 0 0)
(0.1144784611326921 0 0)
(0.1038403212451667 0 0)
(0.09295324212822176 0 0)
(0.08187231692317533 0 0)
(0.07078487994331929 0 0)
(0.06007785540560578 0 0)
(0.05020857475029294 0 0)
(0.0418002752014291 0 0)
(0.03606882418348893 0 0)
(0.03377075797827393 0 0)
(0.03365305626631359 0 0)
(0.03491051831395877 0 0)
(0.03763205894486022 0 0)
(0.04171247642797185 0 0)
(0.04803616084919571 0 0)
(0.05485293277511789 0 0)
(0.06246979039735146 0 0)
(0.07085407160710283 0 0)
(0.08001886145425244 0 0)
(0.08992097866645474 0 0)
(0.1004278790545454 0 0)
(0.1113523907887126 0 0)
(0.1225147708180379 0 0)
(0.1337624668570612 0 0)
(0.1449740858749487 0 0)
(0.1560659238359838 0 0)
(0.1669723992347433 0 0)
(0.1776264096748703 0 0)
(0.1878479546602818 0 0)
(0.1972708506435634 0 0)
(0.2055754640086423 0 0)
(0.2121564929451868 0 0)
(0.2159120276316059 0 0)
(0.2169909148255497 0 0)
(0.2165838218867614 0 0)
(0.2148312084079692 0 0)
(0.2116567035966856 0 0)
(0.2069291370890896 0 0)
(0.200184909764883 0 0)
(0.1927839687166054 0 0)
(0.1843442778889006 0 0)
(0.1750704833233629 0 0)
(0.1652228956014325 0 0)
(0.1550982229697459 0 0)
(0.1449056732443744 0 0)
(0.1346657268040505 0 0)
(0.1242431506635435 0 0)
(0.1134915718165948 0 0)
(0.1023886440435555 0 0)
(0.09106136280544119 0 0)
(0.07974371870985987 0 0)
(0.06881184715064428 0 0)
(0.05873029409954181 0 0)
(0.04987818410794648 0 0)
(0.04317984594821934 0 0)
(0.03989786496624127 0 0)
(0.03926368621526824 0 0)
(0.04003504211317646 0 0)
(0.04224746581032886 0 0)
(0.04586735564163858 0 0)
(0.05127395064067843 0 0)
(0.0580006074860334 0 0)
(0.06527062795645686 0 0)
(0.0732306807318734 0 0)
(0.08190223604233669 0 0)
(0.09132440763453095 0 0)
(0.1014711170632291 0 0)
(0.1122152020444056 0 0)
(0.1233733124143717 0 0)
(0.1347465719069922 0 0)
(0.1461509431822935 0 0)
(0.1573097015428769 0 0)
(0.1683982099324116 0 0)
(0.1778453673186095 0 0)
(0.1932300893011067 0 0)
)
;

boundaryField
{
    inlet
    {
        type            zeroGradient;
    }
    outlet
    {
        type            pressureInletOutletVelocity;
        value           uniform (0.1932300893011067 0 0);
    }
    frontAndBack
    {
        type            empty;
    }
}


// ************************************************************************* //
