/*--------------------------------*- C++ -*----------------------------------*\
| =========                 |                                                 |
| \\      /  F ield         | OpenFOAM: The Open Source CFD Toolbox           |
|  \\    /   O peration     | Version:  v2012                                 |
|   \\  /    A nd           | Website:  www.openfoam.com                      |
|    \\/     M anipulation  |                                                 |
\*---------------------------------------------------------------------------*/
FoamFile
{
    version     2.0;
    format      ascii;
    class       volVectorField;
    location    "0.015";
    object      UMean;
}
// * * * * * * * * * * * * * * * * * * * * * * * * * * * * * * * * * * * * * //

dimensions      [0 1 -1 0 0 0 0];


internalField   nonuniform List<vector> 
1000
(
(7.481503000079308e-05 0 0)
(9.893102676945745e-05 0 0)
(0.0001225884494271434 0 0)
(0.000158295203396381 0 0)
(0.0002056967654017508 0 0)
(0.0002538667606980796 0 0)
(0.0003159417911882494 0 0)
(0.0003819552439724047 0 0)
(0.0004577067397681563 0 0)
(0.0005364673517485965 0 0)
(0.0006185966111442537 0 0)
(0.0007007101433206843 0 0)
(0.0007815971010498478 0 0)
(0.0008615530399502848 0 0)
(0.0009372634583262581 0 0)
(0.001009253113813477 0 0)
(0.001075582823525135 0 0)
(0.001134806270422013 0 0)
(0.001185972793012623 0 0)
(0.001228329372739197 0 0)
(0.001261234899042344 0 0)
(0.001284343164912799 0 0)
(0.001297400442327886 0 0)
(0.001300104641400397 0 0)
(0.001292297350143203 0 0)
(0.001274673165699555 0 0)
(0.001247350146369409 0 0)
(0.001209862098160957 0 0)
(0.001163488813934854 0 0)
(0.001108192963877886 0 0)
(0.001045885330329427 0 0)
(0.0009782362198900681 0 0)
(0.0009058879958009662 0 0)
(0.0008299170203099845 0 0)
(0.0007516025868612162 0 0)
(0.0006726650209937831 0 0)
(0.0005944298295130851 0 0)
(0.0005174357814982188 0 0)
(0.0004441857023644353 0 0)
(0.0003763617186861705 0 0)
(0.0003150937883144106 0 0)
(0.0002614647067311865 0 0)
(0.000216597506877888 0 0)
(0.0001813298649463783 0 0)
(0.0001566937264919104 0 0)
(0.0001429897536624334 0 0)
(0.0001406697028095674 0 0)
(0.0001494521980219912 0 0)
(0.0001694250810669532 0 0)
(0.0002017148848811873 0 0)
(0.0002442696297483108 0 0)
(0.0002968562758074729 0 0)
(0.000358450483314518 0 0)
(0.0004270623987381666 0 0)
(0.0005013385046167528 0 0)
(0.0005797086565511388 0 0)
(0.0006611843882668609 0 0)
(0.0007443807770534494 0 0)
(0.0008274127874175784 0 0)
(0.0009090413587830179 0 0)
(0.0009884788508907221 0 0)
(0.001063349513216532 0 0)
(0.001134501738856463 0 0)
(0.001199462649474545 0 0)
(0.001256647406407852 0 0)
(0.001305175410302427 0 0)
(0.001344166797433426 0 0)
(0.001373403253442121 0 0)
(0.001392524934723087 0 0)
(0.001401227308939344 0 0)
(0.001399367276208116 0 0)
(0.001386924818692325 0 0)
(0.001364952718186414 0 0)
(0.001333036679309321 0 0)
(0.001291120076874157 0 0)
(0.001240230775638343 0 0)
(0.001181336154405221 0 0)
(0.001116409531803644 0 0)
(0.001046523002291313 0 0)
(0.0009724203947401262 0 0)
(0.0008953424556497175 0 0)
(0.0008163569506006776 0 0)
(0.0007370419789196446 0 0)
(0.000658347175747048 0 0)
(0.000579960007967901 0 0)
(0.0005068060971640977 0 0)
(0.0004386525264098516 0 0)
(0.0003763735213962713 0 0)
(0.0003214646342129349 0 0)
(0.0002744571310358116 0 0)
(0.0002368639323360499 0 0)
(0.0002090881264859293 0 0)
(0.0001914875248791953 0 0)
(0.0001841067805241498 0 0)
(0.0001870075749360016 0 0)
(0.0002001719752595751 0 0)
(0.000225008211020557 0 0)
(0.0002582483770199355 0 0)
(0.0003006580785421238 0 0)
(0.0003507920913623617 0 0)
(0.0004075378811945622 0 0)
(0.000469483307380784 0 0)
(0.0005356106619666119 0 0)
(0.0006049963801597479 0 0)
(0.0006770382901811838 0 0)
(0.0007495902930358262 0 0)
(0.0008216074586707432 0 0)
(0.0008902139975613253 0 0)
(0.0009592915444806073 0 0)
(0.001025694007314241 0 0)
(0.001088149481759014 0 0)
(0.001145348907054822 0 0)
(0.001196008308542982 0 0)
(0.001239690182654204 0 0)
(0.001275562393667876 0 0)
(0.001302792224957761 0 0)
(0.001321079277511233 0 0)
(0.001329698160888639 0 0)
(0.0013284927369863 0 0)
(0.001320042547165935 0 0)
(0.001300707149780309 0 0)
(0.001272453817788812 0 0)
(0.001235275597852835 0 0)
(0.001190386315836195 0 0)
(0.001139601983375951 0 0)
(0.001083491054694823 0 0)
(0.00102324741432029 0 0)
(0.0009599143533535493 0 0)
(0.0008942824219540849 0 0)
(0.0008277126846271837 0 0)
(0.0007587381419507736 0 0)
(0.0006939831885236743 0 0)
(0.0006323222840752255 0 0)
(0.0005747021376500098 0 0)
(0.0005221010953149708 0 0)
(0.0004754823819742807 0 0)
(0.000436547920329244 0 0)
(0.0004060577594489367 0 0)
(0.0003849036306761633 0 0)
(0.0003733709818339866 0 0)
(0.0003720149822408866 0 0)
(0.0003791979475626453 0 0)
(0.000400156492596523 0 0)
(0.000429553844278936 0 0)
(0.0004681380825831701 0 0)
(0.0005150800948656458 0 0)
(0.0005694134471476305 0 0)
(0.000629857554155536 0 0)
(0.0006950055165071311 0 0)
(0.0007638914290389788 0 0)
(0.0008358877448117944 0 0)
(0.00090980656804198 0 0)
(0.0009836912522828486 0 0)
(0.001053223839613134 0 0)
(0.001123975532417439 0 0)
(0.001193152693357282 0 0)
(0.001259430606357569 0 0)
(0.001320870208519297 0 0)
(0.001376506906525918 0 0)
(0.001425253782594429 0 0)
(0.001466536315440627 0 0)
(0.001499340728149215 0 0)
(0.001523019084293078 0 0)
(0.001537130215671064 0 0)
(0.001539649107146809 0 0)
(0.001536149485158479 0 0)
(0.001521781483008856 0 0)
(0.001497528070262773 0 0)
(0.001464409522642099 0 0)
(0.001423196990545312 0 0)
(0.001376023109292262 0 0)
(0.001323428662160942 0 0)
(0.001266443039414215 0 0)
(0.001206220377607403 0 0)
(0.001143755529445668 0 0)
(0.00107958589158688 0 0)
(0.001012561697338297 0 0)
(0.0009476586367347577 0 0)
(0.0008867248026158772 0 0)
(0.0008294238675029616 0 0)
(0.0007763993917339372 0 0)
(0.0007288052945292197 0 0)
(0.0006880081830295759 0 0)
(0.0006551729086510414 0 0)
(0.0006314801089500171 0 0)
(0.0006171640040774951 0 0)
(0.0006132234948602875 0 0)
(0.0006173458667702647 0 0)
(0.0006358520747176206 0 0)
(0.0006640655154709697 0 0)
(0.0007011041907230406 0 0)
(0.0007471356636398889 0 0)
(0.0008008808523620193 0 0)
(0.0008609406199201724 0 0)
(0.0009260997544063974 0 0)
(0.000995147489699918 0 0)
(0.001067638258684771 0 0)
(0.00114247629145902 0 0)
(0.001217805326187737 0 0)
(0.001290222310393995 0 0)
(0.001360114482105698 0 0)
(0.001431517986468739 0 0)
(0.001500343256502686 0 0)
(0.001564970681682146 0 0)
(0.001624468493877387 0 0)
(0.001677442642654919 0 0)
(0.001723429491359746 0 0)
(0.001761485396203533 0 0)
(0.001790534442791314 0 0)
(0.001810494982106551 0 0)
(0.001818326191101539 0 0)
(0.001819478896504213 0 0)
(0.00181096742047158 0 0)
(0.001791260595275078 0 0)
(0.00176279335676851 0 0)
(0.001725713888190622 0 0)
(0.001682102353266321 0 0)
(0.001633105771670298 0 0)
(0.001579501909768447 0 0)
(0.001522303206042405 0 0)
(0.00146279393817143 0 0)
(0.001401073351525529 0 0)
(0.001338161249249429 0 0)
(0.001271185368427232 0 0)
(0.001211692410714832 0 0)
(0.001154701473404515 0 0)
(0.001101747418570235 0 0)
(0.001053734545775805 0 0)
(0.001011672891756406 0 0)
(0.0009771236306627456 0 0)
(0.000951349771190656 0 0)
(0.0009344250872141008 0 0)
(0.0009282053428958636 0 0)
(0.0009299811397791569 0 0)
(0.0009447449191811037 0 0)
(0.0009716447178159756 0 0)
(0.001007059325696108 0 0)
(0.001052067939986353 0 0)
(0.001105190228621175 0 0)
(0.001164873932541818 0 0)
(0.001230153651231701 0 0)
(0.00129959905439064 0 0)
(0.001372582036572177 0 0)
(0.001448336361774886 0 0)
(0.001525277185084355 0 0)
(0.001601913629822385 0 0)
(0.001669735090192715 0 0)
(0.001743633152715154 0 0)
(0.001814775647474262 0 0)
(0.001882605544491047 0 0)
(0.001945755192373256 0 0)
(0.002002832952821543 0 0)
(0.00205337044130586 0 0)
(0.002096444761358623 0 0)
(0.002130793510501712 0 0)
(0.002156597523981168 0 0)
(0.002170590936802444 0 0)
(0.002175646024386653 0 0)
(0.002173295082116672 0 0)
(0.002159235207218472 0 0)
(0.002135813868654436 0 0)
(0.002103274536669762 0 0)
(0.002063569160295362 0 0)
(0.002018385839619367 0 0)
(0.001968366607456435 0 0)
(0.001914284545990478 0 0)
(0.001857839095291424 0 0)
(0.001799152982948391 0 0)
(0.001740595381143833 0 0)
(0.001672013672384654 0 0)
(0.001613752501962433 0 0)
(0.001557347002408882 0 0)
(0.001504992011294941 0 0)
(0.001456872801307152 0 0)
(0.001414242029655484 0 0)
(0.001378383673309223 0 0)
(0.00135074605079897 0 0)
(0.001331830259313196 0 0)
(0.001323151767878423 0 0)
(0.001323335567791495 0 0)
(0.001333228836152541 0 0)
(0.001358482467847133 0 0)
(0.001392956354094873 0 0)
(0.001436595670570623 0 0)
(0.001488971307911776 0 0)
(0.001548312997071182 0 0)
(0.001613686024316821 0 0)
(0.00168364000624211 0 0)
(0.001757173685761693 0 0)
(0.001833962433827664 0 0)
(0.001912526301529111 0 0)
(0.001992969268647365 0 0)
(0.002060748213791658 0 0)
(0.002135777712509992 0 0)
(0.002209285177642357 0 0)
(0.002280203107408481 0 0)
(0.002346878154928356 0 0)
(0.002408019165329697 0 0)
(0.002462894680219046 0 0)
(0.002510606471393109 0 0)
(0.002550523947043762 0 0)
(0.002581446109410801 0 0)
(0.002602581665424182 0 0)
(0.002610619921565555 0 0)
(0.002614553714100621 0 0)
(0.002607322216295719 0 0)
(0.00258914650958521 0 0)
(0.002561678112945737 0 0)
(0.002526335170783947 0 0)
(0.0024849611552564 0 0)
(0.002438803193753028 0 0)
(0.002388129230430385 0 0)
(0.002334894125639712 0 0)
(0.002279162026523568 0 0)
(0.002223964277739764 0 0)
(0.002158526828495853 0 0)
(0.002098883487984521 0 0)
(0.002043627425643233 0 0)
(0.00199191202540714 0 0)
(0.00194413047450693 0 0)
(0.001901515444547744 0 0)
(0.001864768250684527 0 0)
(0.001835754311890478 0 0)
(0.001815604285307388 0 0)
(0.001804334311770125 0 0)
(0.001803910826395264 0 0)
(0.001809087454002041 0 0)
(0.001832138471835667 0 0)
(0.001866006966392158 0 0)
(0.001908041418049575 0 0)
(0.001959592175283916 0 0)
(0.002018732598006946 0 0)
(0.002084103523260215 0 0)
(0.002154625177383024 0 0)
(0.002229091373888345 0 0)
(0.002306955671377166 0 0)
(0.002387136440361288 0 0)
(0.002469425861912421 0 0)
(0.002544272015436408 0 0)
(0.00261607903520016 0 0)
(0.002692774256906654 0 0)
(0.00276626554406384 0 0)
(0.002836618994738816 0 0)
(0.002901905843271572 0 0)
(0.002961090648045792 0 0)
(0.003013579709125065 0 0)
(0.003058974505080937 0 0)
(0.003095015730673493 0 0)
(0.003123322019529039 0 0)
(0.003136319899988987 0 0)
(0.003145702640897025 0 0)
(0.003145179470629891 0 0)
(0.003132717886865921 0 0)
(0.003110897921746722 0 0)
(0.003080461701409121 0 0)
(0.003043292859490343 0 0)
(0.003001279752371656 0 0)
(0.002954524192884112 0 0)
(0.002904549709168976 0 0)
(0.002852303485735497 0 0)
(0.002799355989579046 0 0)
(0.002742902852036344 0 0)
(0.002677641878718179 0 0)
(0.002625275503285028 0 0)
(0.002573941234337679 0 0)
(0.002527071273558511 0 0)
(0.002484855112446855 0 0)
(0.002448034671228879 0 0)
(0.002418289658789981 0 0)
(0.002397087801901952 0 0)
(0.002384145532465658 0 0)
(0.002382668294089666 0 0)
(0.002386470429502193 0 0)
(0.002405746445706819 0 0)
(0.002438089668003767 0 0)
(0.002478751265117725 0 0)
(0.0025293666835406 0 0)
(0.002588176000293345 0 0)
(0.00265354329337245 0 0)
(0.002724587704664028 0 0)
(0.002800114372787478 0 0)
(0.002878957708604923 0 0)
(0.002961094827552362 0 0)
(0.003044582433702217 0 0)
(0.003129268294640085 0 0)
(0.003195416829624122 0 0)
(0.003276307624721743 0 0)
(0.003352133579724189 0 0)
(0.003426105080317602 0 0)
(0.003495406117621025 0 0)
(0.003559163515953082 0 0)
(0.003616258644387914 0 0)
(0.003666692168960063 0 0)
(0.003708261965319483 0 0)
(0.003742595810952053 0 0)
(0.003762975956386373 0 0)
(0.003775996771523016 0 0)
(0.003782030628590126 0 0)
(0.003776201897784548 0 0)
(0.003760416944621834 0 0)
(0.003735481040649708 0 0)
(0.003703019671780724 0 0)
(0.003665142384635315 0 0)
(0.003622709026614028 0 0)
(0.003576340664201582 0 0)
(0.003527855499925627 0 0)
(0.003477422284933424 0 0)
(0.003429647819653922 0 0)
(0.003360780325769197 0 0)
(0.003310132443150574 0 0)
(0.003259884236491623 0 0)
(0.003214050401955053 0 0)
(0.003172574853472643 0 0)
(0.00313629130445461 0 0)
(0.003106172796271317 0 0)
(0.0030840085913693 0 0)
(0.003070390241673837 0 0)
(0.003067043998295727 0 0)
(0.0030713331542704 0 0)
(0.003085330910719298 0 0)
(0.00311618117190243 0 0)
(0.00315666229067769 0 0)
(0.003206366410701468 0 0)
(0.003264871041231486 0 0)
(0.003330511373975314 0 0)
(0.003401920952962172 0 0)
(0.00347870679312481 0 0)
(0.003558942139323425 0 0)
(0.003642932724893451 0 0)
(0.003728577747807777 0 0)
(0.003819207728732339 0 0)
(0.003887831330113966 0 0)
(0.003968210188831423 0 0)
(0.004047941159867985 0 0)
(0.004125303556158452 0 0)
(0.00419888101652811 0 0)
(0.004267412644801262 0 0)
(0.004329345960772676 0 0)
(0.004384715043588882 0 0)
(0.004432481594413346 0 0)
(0.004471764568901146 0 0)
(0.004501057099388722 0 0)
(0.004516331405810596 0 0)
(0.004528972961955061 0 0)
(0.004531547171190034 0 0)
(0.00452213238074215 0 0)
(0.004503429541904217 0 0)
(0.004476455706037112 0 0)
(0.004443219808158179 0 0)
(0.004405578091345537 0 0)
(0.004363610131927874 0 0)
(0.004318987041484221 0 0)
(0.0042723323266686 0 0)
(0.004227785382222101 0 0)
(0.004168546351328675 0 0)
(0.004112350175078542 0 0)
(0.004065575966195775 0 0)
(0.004020653015931057 0 0)
(0.003980636587577249 0 0)
(0.003945473327088607 0 0)
(0.003916042898456071 0 0)
(0.003893622369896491 0 0)
(0.003880247528751814 0 0)
(0.00387514250840456 0 0)
(0.003881386115122677 0 0)
(0.003890507457989016 0 0)
(0.003919533579094463 0 0)
(0.00396118811477761 0 0)
(0.004009833417631916 0 0)
(0.0040682930340231 0 0)
(0.004134476861511747 0 0)
(0.004206648942532852 0 0)
(0.004284581783028716 0 0)
(0.004366707872578001 0 0)
(0.004452541082968773 0 0)
(0.004540960181100849 0 0)
(0.004632534683848708 0 0)
(0.004716408783195886 0 0)
(0.004788505950903861 0 0)
(0.004874201587222962 0 0)
(0.004954331401889242 0 0)
(0.005032493293298993 0 0)
(0.005105860742416333 0 0)
(0.005173364925269652 0 0)
(0.00523391602864278 0 0)
(0.005287871708895418 0 0)
(0.005332526661412483 0 0)
(0.005370317284674937 0 0)
(0.005391229867596878 0 0)
(0.005409166141737376 0 0)
(0.00541968565371403 0 0)
(0.005416831514055357 0 0)
(0.005405041169251623 0 0)
(0.00538417905182528 0 0)
(0.005356368826955985 0 0)
(0.005323470250714334 0 0)
(0.005286558379526432 0 0)
(0.005246281698110929 0 0)
(0.005204140279946759 0 0)
(0.005161268398333834 0 0)
(0.005117993206012912 0 0)
(0.005052182501466592 0 0)
(0.005010456233282537 0 0)
(0.004966236643496997 0 0)
(0.004927971157810406 0 0)
(0.004894182362098215 0 0)
(0.004866153521101726 0 0)
(0.004844217226686576 0 0)
(0.004830983658174524 0 0)
(0.004825421307766154 0 0)
(0.004832011917844116 0 0)
(0.004841942238220307 0 0)
(0.004867329943719036 0 0)
(0.004907791237329697 0 0)
(0.004956212141367189 0 0)
(0.005014504994637578 0 0)
(0.005081135749308991 0 0)
(0.005154244751679932 0 0)
(0.00523290851718707 0 0)
(0.005316930740424735 0 0)
(0.005404711400399695 0 0)
(0.005495930669004442 0 0)
(0.005588766746202889 0 0)
(0.005687186184263241 0 0)
(0.005752728490227409 0 0)
(0.005842896157310454 0 0)
(0.005926626026197558 0 0)
(0.006009086147180311 0 0)
(0.006087321451393443 0 0)
(0.006160345653446478 0 0)
(0.006226556124935653 0 0)
(0.006285969299385313 0 0)
(0.006337032720655286 0 0)
(0.006380979006992506 0 0)
(0.006410848052302168 0 0)
(0.006432477683048467 0 0)
(0.006449066735240216 0 0)
(0.006454731348350611 0 0)
(0.006449701659200017 0 0)
(0.006435575194647374 0 0)
(0.006413675035572232 0 0)
(0.006385789610298884 0 0)
(0.006354151114418279 0 0)
(0.00631878401295715 0 0)
(0.00628137076934551 0 0)
(0.006242002413339777 0 0)
(0.006208331037371756 0 0)
(0.006144561983903753 0 0)
(0.006101185479150533 0 0)
(0.006060707191121374 0 0)
(0.006023952659752843 0 0)
(0.005992092720666821 0 0)
(0.005965793016212597 0 0)
(0.005945350668193923 0 0)
(0.005932338885560218 0 0)
(0.005927943792421557 0 0)
(0.005933237604009627 0 0)
(0.005946607578114635 0 0)
(0.005966974790431534 0 0)
(0.006005940266585251 0 0)
(0.006056915237498691 0 0)
(0.006114769523839025 0 0)
(0.006182254786589379 0 0)
(0.006256578753663603 0 0)
(0.006336602643400429 0 0)
(0.006422160816058265 0 0)
(0.006512355120433247 0 0)
(0.006606174516823027 0 0)
(0.006702349136544968 0 0)
(0.006803803260413713 0 0)
(0.00688441466176594 0 0)
(0.00696624135846158 0 0)
(0.007057350844715005 0 0)
(0.007143208974473091 0 0)
(0.007226679807612039 0 0)
(0.007305300107864207 0 0)
(0.007377861127678735 0 0)
(0.007443010512021776 0 0)
(0.007501207494199684 0 0)
(0.007550004699717915 0 0)
(0.007591080056182612 0 0)
(0.007613909355262272 0 0)
(0.007636920727765358 0 0)
(0.007653463365080583 0 0)
(0.007654980389732936 0 0)
(0.007648341872358973 0 0)
(0.007633009509133408 0 0)
(0.007611077233972111 0 0)
(0.007584541656090377 0 0)
(0.007554791980170396 0 0)
(0.007522458095547409 0 0)
(0.007488232616276208 0 0)
(0.007455525573308087 0 0)
(0.007413592826958772 0 0)
(0.007357109083947245 0 0)
(0.007323891156586573 0 0)
(0.007288293355640967 0 0)
(0.007258895670116955 0 0)
(0.007234685498330249 0 0)
(0.007216560172442658 0 0)
(0.007204894456758103 0 0)
(0.007202073756931638 0 0)
(0.007206684184785557 0 0)
(0.007223744215810317 0 0)
(0.007241432504234063 0 0)
(0.007278381957041244 0 0)
(0.007331376343559055 0 0)
(0.007388932996661635 0 0)
(0.007456932518096446 0 0)
(0.007532532301152853 0 0)
(0.007614042071422632 0 0)
(0.007700747823052108 0 0)
(0.007792983369350226 0 0)
(0.00788937989892554 0 0)
(0.00798883368288901 0 0)
(0.008089829673542954 0 0)
(0.00819308567700453 0 0)
(0.008261223667701705 0 0)
(0.008360590332974285 0 0)
(0.008449528364730624 0 0)
(0.008537823347164625 0 0)
(0.008621732897433022 0 0)
(0.008700423231450679 0 0)
(0.008772015469849006 0 0)
(0.008836567553718483 0 0)
(0.008891458576556323 0 0)
(0.008940397112297717 0 0)
(0.008971667267191149 0 0)
(0.008998876655223942 0 0)
(0.009021740033671564 0 0)
(0.009031249417326687 0 0)
(0.009031207699763871 0 0)
(0.009022837253244657 0 0)
(0.009006989370103032 0 0)
(0.008985715039542833 0 0)
(0.008961141309941027 0 0)
(0.008934318519676538 0 0)
(0.008905645128810577 0 0)
(0.008875147173578957 0 0)
(0.008852165213768769 0 0)
(0.008787040188306547 0 0)
(0.008758608254892457 0 0)
(0.008725868773927985 0 0)
(0.008698883815003829 0 0)
(0.008676917524558025 0 0)
(0.008661382759079215 0 0)
(0.00865226606136974 0 0)
(0.008650764688634672 0 0)
(0.008657151524910894 0 0)
(0.008674593659110861 0 0)
(0.008696347785094857 0 0)
(0.008730399835206406 0 0)
(0.008781619627013825 0 0)
(0.008842700656003578 0 0)
(0.00891102372909448 0 0)
(0.008988578150915466 0 0)
(0.009072281426963839 0 0)
(0.009161146438195558 0 0)
(0.009255301132675758 0 0)
(0.009354914229257938 0 0)
(0.009458159985070706 0 0)
(0.009562402436762114 0 0)
(0.009675813060252269 0 0)
(0.009750034199879172 0 0)
(0.009846784991828389 0 0)
(0.009943077029729606 0 0)
(0.0100362077908764 0 0)
(0.01012570987900497 0 0)
(0.010211040953901 0 0)
(0.01028993787712472 0 0)
(0.01036149106420619 0 0)
(0.01042462114168267 0 0)
(0.01047922256605825 0 0)
(0.01052238000754493 0 0)
(0.01055262440319717 0 0)
(0.01058090362001677 0 0)
(0.01060216782102634 0 0)
(0.01060900102784668 0 0)
(0.01060841564445102 0 0)
(0.01059972847314295 0 0)
(0.0105849061872148 0 0)
(0.01056572972104198 0 0)
(0.01054497718122858 0 0)
(0.01052225089067451 0 0)
(0.01049770892424601 0 0)
(0.01047699988847307 0 0)
(0.0104351585453751 0 0)
(0.0103929431243583 0 0)
(0.01036912145800158 0 0)
(0.0103442619429212 0 0)
(0.01032508119323575 0 0)
(0.0103122597406801 0 0)
(0.01030618142177994 0 0)
(0.01030721566874254 0 0)
(0.01031637356196605 0 0)
(0.01033304251277141 0 0)
(0.01036163972793835 0 0)
(0.01038873325350815 0 0)
(0.01043920362915086 0 0)
(0.01050653505277695 0 0)
(0.01057483516712729 0 0)
(0.01065385864747722 0 0)
(0.01073985659864027 0 0)
(0.01083107430424839 0 0)
(0.01092704474453407 0 0)
(0.01102888005588951 0 0)
(0.01113539968149302 0 0)
(0.01124418820880612 0 0)
(0.01135520375712261 0 0)
(0.0114605233092198 0 0)
(0.0115368768121037 0 0)
(0.01164488644811092 0 0)
(0.01174125717808031 0 0)
(0.0118362609965098 0 0)
(0.01192709313547333 0 0)
(0.01201294293725515 0 0)
(0.01209213601286235 0 0)
(0.01216319476404824 0 0)
(0.01222366672664277 0 0)
(0.01227833222868879 0 0)
(0.01231178524261718 0 0)
(0.01234596054654669 0 0)
(0.01237767949180652 0 0)
(0.01239139186285438 0 0)
(0.01239777939793249 0 0)
(0.01239622159684906 0 0)
(0.01238794503291669 0 0)
(0.01237448532879061 0 0)
(0.01235852637243669 0 0)
(0.0123419720874339 0 0)
(0.0123238254660288 0 0)
(0.01230335592240712 0 0)
(0.0122907996532361 0 0)
(0.01222913790511241 0 0)
(0.01221691433820186 0 0)
(0.01219413431954111 0 0)
(0.01217869547654315 0 0)
(0.01216794691277442 0 0)
(0.01216495817641739 0 0)
(0.01216941599555346 0 0)
(0.01218139379728445 0 0)
(0.01220005279718182 0 0)
(0.01223069306143815 0 0)
(0.01226165363116613 0 0)
(0.0123098981821951 0 0)
(0.01237610052817378 0 0)
(0.01244739991619334 0 0)
(0.01252697534058091 0 0)
(0.01261499753224697 0 0)
(0.01270890509801039 0 0)
(0.01280725736269625 0 0)
(0.01291040510700552 0 0)
(0.01302028926142437 0 0)
(0.01313345419871058 0 0)
(0.01324562308588553 0 0)
(0.01337137528094979 0 0)
(0.01343791510742248 0 0)
(0.01355218560011022 0 0)
(0.01365406131352177 0 0)
(0.01375476719882073 0 0)
(0.01385047416972395 0 0)
(0.01394260572402627 0 0)
(0.01402919881697711 0 0)
(0.01410838675510562 0 0)
(0.01417723840754863 0 0)
(0.01423811512954048 0 0)
(0.01428365327892284 0 0)
(0.01432177388126707 0 0)
(0.01435701499736053 0 0)
(0.01438281377548556 0 0)
(0.01439526664923249 0 0)
(0.01440072969969875 0 0)
(0.01439932041470271 0 0)
(0.0143920648655868 0 0)
(0.01438064643186999 0 0)
(0.01436961373015566 0 0)
(0.0143575112458348 0 0)
(0.01434269134587898 0 0)
(0.01433640257901336 0 0)
(0.01429101077053174 0 0)
(0.0142690887367038 0 0)
(0.01425518801399535 0 0)
(0.01424270909421975 0 0)
(0.01423474266369844 0 0)
(0.01423386006685171 0 0)
(0.01424131723266769 0 0)
(0.01425693327523645 0 0)
(0.01427896122062703 0 0)
(0.01430914719819281 0 0)
(0.01434802148422582 0 0)
(0.01438935619329146 0 0)
(0.01445327239982929 0 0)
(0.01453249922349423 0 0)
(0.0146117050682236 0 0)
(0.01470152409486709 0 0)
(0.01479779204056583 0 0)
(0.01489911894259425 0 0)
(0.01500415666211087 0 0)
(0.01511579052076677 0 0)
(0.01523245559421718 0 0)
(0.01535012892481257 0 0)
(0.01547156966456655 0 0)
(0.01557500121359734 0 0)
(0.01566378303457112 0 0)
(0.01577946791874798 0 0)
(0.01588362417796256 0 0)
(0.01598502033153982 0 0)
(0.01608177861412589 0 0)
(0.01617476823272046 0 0)
(0.01626218818863956 0 0)
(0.01634021913515193 0 0)
(0.01640659638772919 0 0)
(0.01646723297226345 0 0)
(0.0165015832067362 0 0)
(0.01654332495073336 0 0)
(0.01658508672069703 0 0)
(0.01660276072480608 0 0)
(0.01661539016793498 0 0)
(0.01662024286640309 0 0)
(0.01661976624693183 0 0)
(0.0166139917078814 0 0)
(0.01660675892825135 0 0)
(0.01660027915539334 0 0)
(0.01659268075940648 0 0)
(0.01658289450545808 0 0)
(0.01657834529679458 0 0)
(0.01652395974376179 0 0)
(0.01652713753397249 0 0)
(0.01651637121934213 0 0)
(0.01651267962667634 0 0)
(0.01651327885008147 0 0)
(0.01652233009736183 0 0)
(0.01654143078056432 0 0)
(0.01656747079115712 0 0)
(0.01659903886424875 0 0)
(0.01664270817448979 0 0)
(0.01668169380448309 0 0)
(0.01674436560446004 0 0)
(0.01682666213203139 0 0)
(0.01690708963758255 0 0)
(0.01699769913473807 0 0)
(0.0170954863536125 0 0)
(0.01719962704763865 0 0)
(0.01730758125454034 0 0)
(0.0174201440074694 0 0)
(0.01753952212203023 0 0)
(0.01766265370263576 0 0)
(0.01778145860519093 0 0)
(0.01792061639796048 0 0)
(0.0179769406219984 0 0)
(0.01811090719506311 0 0)
(0.01821851015075135 0 0)
(0.01832672817477564 0 0)
(0.01842813003443061 0 0)
(0.01852537010574859 0 0)
(0.01861968863929539 0 0)
(0.01870676838647896 0 0)
(0.01878218106024696 0 0)
(0.01884912150151169 0 0)
(0.01889730830161926 0 0)
(0.01894259507468036 0 0)
(0.01898631547948976 0 0)
(0.01901669644890656 0 0)
(0.01903467468769941 0 0)
(0.01904586437192193 0 0)
(0.01905120461552216 0 0)
(0.01905190811069859 0 0)
(0.01904842300406208 0 0)
(0.01904642965858781 0 0)
(0.01904434298742887 0 0)
(0.01903841905163715 0 0)
(0.01904682342546932 0 0)
(0.01899609681936268 0 0)
(0.01899650916339021 0 0)
(0.01899343856113139 0 0)
(0.01899407485408112 0 0)
(0.01899770417535876 0 0)
(0.01900735409636105 0 0)
(0.01902760565504928 0 0)
(0.01905759798604179 0 0)
(0.01909327796517041 0 0)
(0.01913590394050292 0 0)
(0.01918427920973087 0 0)
(0.01923920361214617 0 0)
(0.01931493184671396 0 0)
(0.01940466616528747 0 0)
(0.01949327804171423 0 0)
(0.01959214743261226 0 0)
(0.01969702690010115 0 0)
(0.01980760480929616 0 0)
(0.01992147707462162 0 0)
(0.02004224318616387 0 0)
(0.02016688200406625 0 0)
(0.02029197829173763 0 0)
(0.02042212782279441 0 0)
(0.02052239815010454 0 0)
(0.02062329792408843 0 0)
(0.0207460781298729 0 0)
(0.0208576596938938 0 0)
(0.02096466686140003 0 0)
(0.02106553448160447 0 0)
(0.02116264713558601 0 0)
(0.02125690095974568 0 0)
(0.02134212374251539 0 0)
(0.02141377511266281 0 0)
(0.02147981669049487 0 0)
(0.02151608533312141 0 0)
(0.02156298436641155 0 0)
(0.02161439332994841 0 0)
(0.02163519455480972 0 0)
(0.02165303127236378 0 0)
(0.02166284899659853 0 0)
(0.02166866404982173 0 0)
(0.02167014938186209 0 0)
(0.02167196136910829 0 0)
(0.02167219897885736 0 0)
(0.02167362338834133 0 0)
(0.02167300973476778 0 0)
(0.02167515681566836 0 0)
(0.02162659232523152 0 0)
(0.02164459133179111 0 0)
(0.02164546581752214 0 0)
(0.02165317989449875 0 0)
(0.02166412248624813 0 0)
(0.02168220593208233 0 0)
(0.02171250403038704 0 0)
(0.02175184103805786 0 0)
(0.02179530242006537 0 0)
(0.02185051856882762 0 0)
(0.02189472404491797 0 0)
(0.0219676117162831 0 0)
(0.0220645817698996 0 0)
(0.02215185078279222 0 0)
(0.02225074039011538 0 0)
(0.02235575595509846 0 0)
(0.02246688550984357 0 0)
(0.02258223290371125 0 0)
(0.02270481664245901 0 0)
(0.02283040035075172 0 0)
(0.02295990188031136 0 0)
(0.0230831141127355 0 0)
(0.02323269400740357 0 0)
(0.02327726397500797 0 0)
(0.02342874665368596 0 0)
(0.02354098506665878 0 0)
(0.02365492861198574 0 0)
(0.02376061096675043 0 0)
(0.02386039102608073 0 0)
(0.02395703238514658 0 0)
(0.02404901318261595 0 0)
(0.02413085442804806 0 0)
(0.02420245545815011 0 0)
(0.02425258532933429 0 0)
(0.02430078314529384 0 0)
(0.02435148223168274 0 0)
(0.02438558920240928 0 0)
(0.02440727412165912 0 0)
(0.02442264250247323 0 0)
(0.02443265864856866 0 0)
(0.02443782714847915 0 0)
(0.02444254267178161 0 0)
(0.02444868590090566 0 0)
(0.02445128387491572 0 0)
(0.0244520592010771 0 0)
(0.02447033647577262 0 0)
(0.02441371639971472 0 0)
(0.02443246743722279 0 0)
(0.02443882344936964 0 0)
(0.0244491276972574 0 0)
(0.02446199596526014 0 0)
(0.02448029498465597 0 0)
(0.02450779664446055 0 0)
(0.02454499082542585 0 0)
(0.02459259808982477 0 0)
(0.02464563129741622 0 0)
(0.02470481017811593 0 0)
(0.02476368628004257 0 0)
(0.02484690471538769 0 0)
(0.02494864720851796 0 0)
(0.0250414736100492 0 0)
(0.02514717758520593 0 0)
(0.0252586384776703 0 0)
(0.02537495982434341 0 0)
(0.0254942647619708 0 0)
(0.02562556722918118 0 0)
(0.02575465148453714 0 0)
(0.02588311846724805 0 0)
(0.02601678973773892 0 0)
(0.02611631801989484 0 0)
(0.02621788522756365 0 0)
(0.02635317052443659 0 0)
(0.0264679407721197 0 0)
(0.026577597679783 0 0)
(0.02668203813353728 0 0)
(0.02678471266462807 0 0)
(0.02687870105465874 0 0)
(0.02696127220641052 0 0)
(0.02704663042882568 0 0)
(0.02719340075195932 0 0)
(0.0271846842589118 0 0)
)
;

boundaryField
{
    inlet
    {
        type            calculated;
        value           uniform (7.481503000079308e-05 0 0);
    }
    outlet
    {
        type            calculated;
        value           uniform (0.0271846842589118 0 0);
    }
    frontAndBack
    {
        type            empty;
    }
}


// ************************************************************************* //
