/*--------------------------------*- C++ -*----------------------------------*\
| =========                 |                                                 |
| \\      /  F ield         | OpenFOAM: The Open Source CFD Toolbox           |
|  \\    /   O peration     | Version:  v2012                                 |
|   \\  /    A nd           | Website:  www.openfoam.com                      |
|    \\/     M anipulation  |                                                 |
\*---------------------------------------------------------------------------*/
FoamFile
{
    version     2.0;
    format      ascii;
    class       volScalarField;
    location    "0.0125";
    object      p;
}
// * * * * * * * * * * * * * * * * * * * * * * * * * * * * * * * * * * * * * //

dimensions      [1 -1 -2 0 0 0 0];


internalField   nonuniform List<scalar> 
1000
(
101339.0644528022
101336.460217809
101343.1509866059
101348.3932411961
101354.2063955925
101359.4772490351
101364.0626329917
101367.9782977762
101371.2472303735
101373.4090240543
101374.0669859156
101374.0462627563
101373.6818776503
101372.6624674898
101370.6984926975
101367.7119431933
101363.8061262982
101359.1581586884
101353.9183274582
101348.1869396788
101342.0430261656
101335.5757475239
101328.8955717034
101322.1294587641
101315.4121321625
101308.878551074
101302.6510319086
101296.8115319189
101291.3726293851
101286.3123290767
101281.7743185975
101278.4047258344
101276.9698890089
101276.8134392046
101276.8703760943
101277.151708031
101277.9079182232
101279.3900090668
101281.7982258575
101285.2195718372
101289.6050754863
101294.7972024987
101300.5926105214
101306.802636622
101313.2814842587
101319.9194064246
101326.6197178781
101333.2813775359
101339.8001327744
101346.0900137758
101352.1115421771
101357.8694913712
101363.3165432576
101368.0978520818
101371.3367163624
101372.4865957317
101372.5761879161
101372.5307680041
101372.2894044508
101371.6682108387
101370.4494222353
101368.4356859738
101365.4856083978
101361.5495894984
101356.6836759511
101351.0361353899
101344.8097374194
101338.2151612457
101331.4357676009
101324.6151282591
101317.8610775744
101311.249539284
101304.8200879715
101298.5769206614
101292.5278118042
101286.8108540178
101281.9482365187
101278.9085570078
101277.9715394193
101277.9143531919
101277.9713603831
101278.1922517708
101278.7599514025
101279.8545002994
101281.6587203608
101284.3190481606
101287.9179938107
101292.4523766599
101297.8295252815
101303.8837857374
101310.4077861825
101317.1891954115
101324.0440697455
101330.8390415078
101337.4980482707
101343.9959303955
101350.3412233898
101356.5296210818
101362.4116354968
101367.4337131989
101370.5936031187
101371.5896629291
101371.6551978268
101371.623924585
101371.4335328882
101370.9563296126
101370.0172515146
101368.4482202863
101366.0982118684
101362.859505353
101358.6886891514
101353.6215356773
101347.7742526417
101341.3267515183
101334.4914332802
101327.4773126666
101320.4577780414
101313.5463959271
101306.7879847199
101300.1798057405
101293.7444105758
101287.6884008059
101282.6533663524
101279.649569789
101278.7790606174
101278.7268507639
101278.7746190149
101278.9497342063
101279.4046385893
101280.2847424291
101281.7478953505
101283.935972276
101286.9574133854
101290.8675275027
101295.6549061398
101301.2369560521
101307.4665642554
101314.1520120501
101321.0894130645
101328.0991941037
101335.053412955
101341.885067576
101348.574348793
101355.0933593334
101361.261618241
101366.49034958
101369.7719905574
101370.8321912903
101370.9158182903
101370.894597604
101370.747665183
101370.3722833001
101369.6195638646
101368.343073855
101366.4006948625
101363.6736099685
101360.0826149474
101355.6043116506
101350.2818009488
101344.2244648385
101337.5950725812
101330.5864337236
101323.3904555603
101316.164565341
101309.008809078
101301.9756774004
101295.1384445823
101288.7513544057
101283.4951197998
101280.3796288577
101279.4649783703
101279.4039670671
101279.4405981254
101279.5792753224
101279.9492658255
101280.6745794488
101281.8941425391
101283.7399843598
101286.3249801356
101289.7273204738
101293.9774641291
101299.0490150874
101304.8556936683
101311.2583830414
101318.0848338569
101325.158048295
101332.3241669583
101339.4711574388
101346.5279931676
101353.4194998168
101359.9289554332
101365.4505798127
101368.969533831
101370.1678385855
101370.2816581852
101370.2684529755
101370.1565346535
101369.8587538689
101369.2454840914
101368.1875593786
101366.5540117292
101364.2263086906
101361.1106418374
101357.1520274493
101352.3463109091
101346.7458391403
101340.4568001171
101333.6280620364
101326.4306471707
101319.0292427288
101311.5573790044
101304.118402691
101296.8430266149
101290.0429071614
101284.4446977452
101281.1040614347
101280.0867421754
101280.0102899452
101280.0330652315
101280.1351083578
101280.4262289774
101281.0179271448
101282.0377788372
101283.6111585434
101285.8513069372
101288.8466609815
101292.6493115492
101297.2654673917
101302.6498713671
101308.7072407564
101315.3030332673
101322.2828205631
101329.4953248836
101336.8146608975
101344.143502097
101351.3681057384
101358.2421291418
101364.1248658801
101367.9923349997
101369.4653496196
101369.6809729325
101369.7358440665
101369.6968379467
101369.4994936137
101369.029348985
101368.1607088274
101366.7677333317
101364.7346847136
101361.9677236465
101358.4039281546
101354.0190019875
101348.8338622279
101342.9165607758
101336.3752603816
101329.3424158335
101321.9567879252
101314.3467327029
101306.6332204931
101298.9761234573
101291.7306433724
101285.6642962865
101281.831609614
101280.4828742935
101280.2056832048
101280.055294502
101280.0545393816
101280.2237752424
101280.6727627394
101281.5305327054
101282.9172508334
101284.9397104759
101287.6849492913
101291.2098990416
101295.5337171037
101300.6341635834
101306.4478336538
101312.8753035157
101319.7927587573
101327.0684280916
101334.5761705795
101342.2009139881
101349.8105101636
101357.1045787099
101363.4146303432
101367.8216451335
101369.8135118523
101370.2601767231
101370.3901244737
101370.3943673863
101370.2347065674
101369.8259691629
101369.0625572747
101367.8333060131
101366.0235926043
101363.5284409891
101360.2685601576
101356.2002140809
101351.3189750282
101345.6605270112
101339.2980756397
101332.3336406017
101324.8862449028
101317.0862421778
101309.0784250962
101301.053106811
101293.3938837076
101286.8805637204
101282.5067721183
101280.6424369674
101280.2390580732
101280.1051073229
101280.1133768033
101280.287010661
101280.7090784379
101281.4765992497
101282.6931212385
101284.4651254039
101286.8895369877
101290.0404081746
101293.9601810667
101298.6545386921
101304.090477633
101310.1991771381
101316.884896324
101324.0372829924
101331.5377504966
101339.255583579
101347.0325797039
101354.5899507579
101361.3239016005
101366.3271994027
101368.9175539807
101369.6085082299
101369.7445515094
101369.7859024347
101369.6698994277
101369.3368586203
101368.6883197224
101367.6289579473
101366.0564814357
101363.8691443738
101360.9786927981
101357.3206349335
101352.8615925406
101347.6044955472
101341.5898625854
101334.891195612
101327.6068193618
101319.8572542658
101311.7916725565
101303.6061194374
101295.6449442291
101288.626327125
101283.5947756489
101281.1601545351
101280.5574573273
101280.4336976499
101280.4190633238
101280.5586011782
101280.922359932
101281.5970164176
101282.6740187973
101284.2496087676
101286.4157528583
101289.250118161
101292.8090923695
101297.121743405
101302.1843071077
101307.9580082223
101314.372771062
101321.3358035833
101328.7374563059
101336.4480290778
101344.3083172667
101352.0740812887
101359.2171925601
101364.8282007617
101368.090703725
101369.14514662
101369.3027880148
101369.3671413564
101369.2894998461
101369.0239594679
101368.4777474202
101367.5634411095
101366.1864645761
101364.24935266
101361.6635361592
101358.3574562441
101354.281477198
101349.4132218571
101343.7628132132
101337.3744660817
101330.3230644161
101322.712717371
101314.6837420347
101306.4253048969
101298.2383074299
101290.7529996068
101285.0334356197
101281.919598509
101280.9904843245
101280.8553513111
101280.8170936592
101280.9227665646
101281.2246587294
101281.806461778
101282.7516656712
101284.1506752988
101286.0922128436
101288.6535780471
101291.8959215123
101295.8608062398
101300.564906951
101305.9948410989
101312.1058120883
101318.8258260916
101326.0605435382
101333.6901539685
101341.5602109742
101349.4538658952
101356.9357484677
101363.142290474
101367.1222290549
101368.6849370475
101368.9372270821
101369.0031722432
101368.9587967821
101368.7540087045
101368.3003872081
101367.5172882752
101366.3155843095
101364.5999415453
101362.28153668
101359.2857571284
101355.5546220881
101351.0502976494
101345.7610496297
101339.7061091572
101332.9363690033
101325.534529122
101317.6227690675
101309.3754907246
101301.0571430943
101293.1950253189
101286.8011635485
101282.9158890896
101281.5101376667
101281.2986242086
101281.2497512644
101281.3232330505
101281.5677886048
101282.063124082
101282.8862163988
101284.1235126363
101285.8624267219
101288.1802798637
101291.1403341913
101294.7907580252
101299.1608761509
101304.2554270454
101310.0506395857
101316.4949703079
101323.5121496698
101330.997934041
101338.8108891499
101346.7564957446
101354.4835650103
101361.2284889649
101365.9434512544
101368.1516911831
101368.6162809462
101368.6750767659
101368.6565500904
101368.5042940529
101368.1333544754
101367.4685127189
101366.4257859372
101364.9116485458
101362.8360102012
101360.121330987
101356.7045524915
101352.538625539
101347.5971193631
101341.8801055121
101335.4175676514
101328.2707782797
101320.540153947
101312.3794248812
101304.019881267
101295.8888936218
101288.8806910876
101284.1817847845
101282.1523401657
101281.7541751853
101281.7063496158
101281.7545501093
101281.9492310679
101282.3669537311
101283.0792914372
101284.1683920597
101285.720988015
101287.8155538627
101290.5173510405
101293.8786310894
101297.9367954938
101302.70935351
101308.1889499833
101314.3416309053
101321.1081926449
101328.4019075366
101336.0988215787
101344.0236563375
101351.8909463591
101359.0806448268
101364.5282131655
101367.4788777534
101368.3213188588
101368.3808697573
101368.3842569889
101368.2707403232
101367.9681945544
101367.4054351268
101366.5045913758
101365.1741995743
101363.3221080296
101360.8671192025
101357.742017529
101353.8935402114
101349.2851328306
101343.9024346597
101337.7581899479
101330.8949184389
101323.3911702313
101315.3764407802
101307.0527140324
101298.7683335551
101291.2585935696
101285.7452691483
101282.9724221825
101282.2389216567
101282.1841788754
101282.2073345435
101282.3613024644
101282.7115560833
101283.3250093316
101284.278532536
101285.658262954
101287.5451030572
101290.0069445252
101293.0989587284
101296.8638080528
101301.3280766524
101306.497134541
101312.3516665446
101318.8476622246
101325.9155648937
101333.4500221639
101341.2954743931
101349.215410126
101356.7329758635
101362.8639277231
101366.6028157952
101367.9669026833
101368.1301384284
101368.1280090098
101368.0406133545
101367.7971640343
101367.3238869825
101366.5489990409
101365.384228427
101363.736878251
101361.5228220647
101358.670796386
101355.1221515666
101350.8326479703
101345.7770532387
101339.954367826
101333.391287233
101326.1468200139
101318.327356892
101310.1070941273
101301.7702434852
101293.8945337376
101287.6172684036
101284.0111714836
101282.788819285
101282.6517639423
101282.6720337286
101282.7906500208
101283.0840332157
101283.611885033
101284.4450043743
101285.6676608596
101287.3625493084
101289.6002822912
101292.439077122
101295.9261838656
101300.0954150831
101304.9621631067
101310.5192176015
101316.7356639247
101323.5564042442
101330.8935441471
101338.612561047
101346.5137789885
101354.2284904876
101360.9342025461
101365.4853685517
101367.527963674
101367.9137595141
101367.8943611733
101367.833092262
101367.6332385326
101367.2327400812
101366.5649681097
101365.5479495991
101364.0890775762
101362.1006618107
101359.5068355447
101356.2438582578
101352.2610754744
101347.5246235776
101342.0223478608
101335.7676941936
101328.8034456622
101321.2140406573
101313.1456912265
101304.8355686399
101296.7372837195
101289.8083724722
101285.3131427584
101283.4566392451
101283.1226281999
101283.140831235
101283.2293585789
101283.4748358126
101283.9289767155
101284.6567763643
101285.738162945
101287.2568996233
101289.2868023761
101291.8891505793
101295.1145584774
101299.0019713332
101303.5746750966
101308.8360427687
101314.7669805035
101321.3251321327
101328.4397580391
101335.9973071651
101343.8235589818
101351.6249416004
101358.772152154
101364.1207026634
101366.9179897808
101367.6684939052
101367.7036805486
101367.6437415519
101367.4739433824
101367.1344446704
101366.5589334545
101365.6718531267
101364.382860722
101362.6024405841
101360.2512384227
101357.2608325903
101353.5742734398
101349.1497657054
101343.9653177017
101338.0229272112
101331.3520043719
101324.0173046383
101316.1396219006
101307.9219929191
101299.7208877152
101292.2875074702
101286.906775335
101284.2957822142
101283.626002928
101283.6043499732
101283.6751592406
101283.8780268906
101284.270989981
101284.9084953347
101285.8645128702
101287.2229606734
101289.0603995643
101291.4408056204
101294.4177530669
101298.0347513848
101302.3218707006
101307.2913102471
101312.9341435303
101319.2194313505
101326.0914759302
101333.455343648
101341.1591312987
101348.966160264
101356.403851827
101362.4681051747
101366.0849002089
101367.395667755
101367.5465245479
101367.4800598159
101367.3425526636
101367.048749496
101366.5454501672
101365.7668295682
101364.6268478335
101363.0351220582
101360.9090194537
101358.1755889757
101354.7721906576
101350.6500628375
101345.7787906044
101340.1502966531
101333.7819230637
101326.7215131863
101319.0658766884
101310.9873020381
101302.7735055358
101295.0044632023
101288.8331675471
101285.3666602784
101284.197845871
101284.0669849138
101284.1375001478
101284.2971703483
101284.637475177
101285.1979617213
101286.0438224646
101287.2565078322
101288.9153665349
101291.0877744389
101293.8302579889
101297.1898096641
101301.2014389304
101305.8843522525
101311.2388141171
101317.2443584463
101323.8577023046
101331.002871572
101338.5530362993
101346.30831622
101353.9010339178
101360.5364298801
101365.0178135927
101367.0065380125
101367.3831120261
101367.3525597442
101367.2293182726
101366.9712889999
101366.5281019892
101365.839565447
101364.8288030046
101363.4062412488
101361.4866590291
101358.9940778098
101355.8611767477
101352.0322547765
101347.4687907985
101342.1537086834
101336.0940297042
101329.3242313765
101321.9189835843
101314.0201566296
101305.8682244896
101297.9120369494
101291.0855940325
101286.6837832114
101284.8919942964
101284.5516902056
101284.5898497302
101284.7230201518
101285.0177507461
101285.5135220776
101286.2663599148
101287.3509027599
101288.846560511
101290.8242679344
101293.3448474046
101296.4595127901
101300.2077177275
101304.6140773733
101309.6857510637
101315.4104010153
101321.7552363797
101328.6615818664
101336.0254096422
101343.6736647504
101351.3169166943
101358.3580657033
101363.668887974
101366.4174851647
101367.2113490522
101367.2496201441
101367.1352110033
101366.911757979
101366.5130372604
101365.8951690218
101364.9921854923
101363.7193892747
101361.9909269844
101359.7265258115
101356.8527575965
101353.3070669155
101349.0437760215
101344.0381150836
101338.2885104362
101331.8187627844
101324.6849584379
101316.9997619731
101308.9662347105
101300.9360817852
101293.6293208624
101288.314326045
101285.7623854498
101285.0630747925
101285.0240017122
101285.1422485962
101285.389557775
101285.835344296
101286.5134227803
101287.4887284769
101288.8382634831
101290.6348543094
101292.94382371
101295.8228296571
101299.3179634244
101303.4591762909
101308.2581897829
101313.7078499741
101319.7821400758
101326.4338780161
101333.5801762984
101341.079696125
101348.7014915164
101355.9884333463
101361.9991806036
101365.6150529674
101366.9673109549
101367.1584541028
101367.0800345066
101366.8869858962
101366.5254721596
101365.9608940009
101365.1407057811
101363.9914123156
101362.429965071
101360.374992788
101357.7486136925
101354.4793240525
101350.509872188
101345.8055156121
101340.3579658218
101334.1851445422
101327.3322998512
101319.8893008055
101312.0225619739
101304.0137114948
101296.4148871766
101290.3136121955
101286.851128894
101285.6648554164
101285.4813863176
101285.5532910465
101285.7597156347
101286.1598809815
101286.7800483516
101287.6717681463
101288.9009951343
101290.5360433204
101292.6438106877
101295.2893769852
101298.5300239809
101302.4066085549
101306.9385488631
101312.1230622157
101317.9362841454
101324.3352410079
101331.2518137444
101338.5694737446
101346.0961927865
101353.4866100312
101360.0175082931
101364.538952947
101366.5551072717
101367.0449701447
101367.0529282161
101366.8962030909
101366.5804692471
101366.0532082923
101365.2862680352
101364.2240489786
101362.7970021726
101360.9289230846
101358.5380736765
101355.5422066944
101351.8696408616
101347.4706786179
101342.3245739939
101336.4424151115
101329.8663159789
101322.6732390972
101315.0015276276
101307.085989276
101299.349462761
101292.6563875578
101288.2400876883
101286.4222665179
101286.0043523175
101285.9658934969
101286.1204367143
101286.4582362886
101287.0279150323
101287.860699322
101289.0063982503
101290.51971518
101292.457398822
101294.8831521648
101297.865150852
101301.4633989966
101305.7161936903
101310.6334014677
101316.1958888927
101322.358902145
101329.0555064383
101336.1831576383
101343.5783479355
101350.9748768973
101357.8230334033
101363.0969689817
101365.9393143725
101366.8391701817
101366.9741628635
101366.9144258593
101366.6734159727
101366.2078478468
101365.4869533237
101364.4733631351
101363.1232426362
101361.3853265578
101359.1942702222
101356.4665217959
101353.1098031298
101349.0439220582
101344.2211402897
101338.6363351603
101332.327653324
101325.371702931
101317.8942715171
101310.1000829676
101302.322845038
101295.2343067803
101290.0031249698
101287.3719289434
101286.6026363405
101286.4811472611
101286.5198297245
101286.7518662751
101287.2262823579
101287.9877550306
101289.0776826463
101290.529549858
101292.3700137472
101294.6326702616
101297.3732065514
101300.6683869452
101304.5959815351
101309.2071877084
101314.5069831838
101320.4496248799
101326.9521445602
101333.9056964714
101341.1610939637
101348.5046213949
101355.5341595636
101361.3913369608
101365.0780228086
101366.5237647099
101366.7991405036
101366.8297290083
101366.7053306454
101366.382470399
101365.7907526362
101364.8681033215
101363.5626797968
101361.8467252583
101359.7098236716
101357.1336945863
101354.0696189385
101350.4285120829
101346.0827425237
101340.8983658943
101334.8169432347
101327.9710486805
101320.5755650428
101313.1451064164
101304.5906560547
)
;

boundaryField
{
    inlet
    {
        type            uniformFixedValue;
        uniformValue    sine;
        uniformValueCoeffs
        {
            frequency       constant 3000;
            scale           constant 50;
            level           constant 101325;
        }
        value           uniform 101326.3578702043;
    }
    outlet
    {
        type            pressureOutletNSCBC;
        pInf            101325;
        gamma           1.4;
        etaAc           1;
        fieldInf        1;
        lInf            2.25;
        value           uniform 101300.8048140911;
    }
    frontAndBack
    {
        type            empty;
    }
}


// ************************************************************************* //
