/*--------------------------------*- C++ -*----------------------------------*\
| =========                 |                                                 |
| \\      /  F ield         | OpenFOAM: The Open Source CFD Toolbox           |
|  \\    /   O peration     | Version:  v2012                                 |
|   \\  /    A nd           | Website:  www.openfoam.com                      |
|    \\/     M anipulation  |                                                 |
\*---------------------------------------------------------------------------*/
FoamFile
{
    version     2.0;
    format      ascii;
    class       volScalarField;
    location    "0.0125";
    object      pMean;
}
// * * * * * * * * * * * * * * * * * * * * * * * * * * * * * * * * * * * * * //

dimensions      [1 -1 -2 0 0 0 0];


internalField   nonuniform List<scalar> 
1000
(
101325.4319765059
101325.4186240107
101325.4091884852
101325.40145781
101325.3858640422
101325.3681813244
101325.3455245359
101325.3226838659
101325.2969295869
101325.2701642878
101325.2423006868
101325.2140436814
101325.1859404709
101325.1581255961
101325.1311934565
101325.1055987331
101325.0819582028
101325.0607147428
101325.0422570684
101325.0269584232
101325.0150159294
101325.0067191031
101325.0021596119
101325.0014987596
101325.0046947518
101325.0117407252
101325.0224566713
101325.0366897243
101325.0541677904
101325.0747111201
101325.0980654962
101325.1238425932
101325.151121203
101325.1788655953
101325.2066019771
101325.2342609239
101325.2616255431
101325.288403705
101325.3140889256
101325.3381675434
101325.3600343699
101325.3792084719
101325.395240763
101325.407863409
101325.4168336327
101325.4220531661
101325.4234197912
101325.4209514992
101325.4146657145
101325.4046986586
101325.3911594702
101325.3742297224
101325.3540250797
101325.3308138609
101325.3051302232
101325.278091205
101325.2506923677
101325.223316481
101325.196003233
101325.1689328552
101325.1423491015
101325.1166643969
101325.092343076
101325.0699664978
101325.0500552906
101325.0331408586
101325.0195925798
101325.0097262053
101325.0036821934
101325.0015621907
101325.0033360531
101325.0089786103
101325.0183726299
101325.0314410307
101325.0480492314
101325.0680968997
101325.0912769118
101325.1169068969
101325.1437583123
101325.1708820971
101325.1979790434
101325.2250248128
101325.2518317238
101325.2782180113
101325.303776237
101325.3281266767
101325.3506941591
101325.3710041009
101325.3884737315
101325.402724097
101325.4133468136
101325.4201908561
101325.4230819845
101325.4220770297
101325.4171587278
101325.4084828053
101325.3960667608
101325.3800623645
101325.3605060356
101325.337753571
101325.3124521991
101325.285896459
101325.2590142055
101325.2321727518
101325.205364081
101325.1787555452
101325.1525119313
101325.1269718061
101325.1025014309
101325.0796063238
101325.058775706
101325.0405715774
101325.0254460113
101325.0138443103
101325.0060227571
101325.0021967434
101325.00238349
101325.0066066172
101325.0147501675
101325.0267736412
101325.0425488111
101325.0619845315
101325.084708731
101325.1099309291
101325.1363316418
101325.1629884662
101325.1896161384
101325.216216062
101325.2426079967
101325.2686802484
101325.2940651298
101325.3184826003
101325.3414015234
101325.362419149
101325.3809362928
101325.3965545981
101325.4087663949
101325.4173276014
101325.421942422
101325.4225881722
101325.4191740541
101325.4118282971
101325.4005428519
101325.3854794031
101325.3666773214
101325.3445401071
101325.3197469172
101325.2936528575
101325.2671974491
101325.2407840221
101325.2143791728
101325.1881433373
101325.1621853146
101325.1368097045
101325.1122973747
101325.0891120567
101325.0676711126
101325.0485296184
101325.032135615
101325.0190019182
101325.0094605585
101325.0038500513
101325.0022858765
101325.0048996823
101325.0116255347
101325.0224750874
101325.037304718
101325.0560228117
101325.0781817818
101325.1029530668
101325.1289367788
101325.1552077266
101325.1814439436
101325.2076725217
101325.2337205335
101325.2595178169
101325.2847354191
101325.3091505482
101325.3322847607
101325.3537858328
101325.3730842763
101325.3897901428
101325.4033581988
101325.4134915506
101325.4197935087
101325.4221562495
101325.4203795864
101325.4145335821
101325.4045456518
101325.3905752527
101325.372654389
101325.3512190735
101325.3269669698
101325.3012983909
101325.275213334
101325.2491646298
101325.2231074075
101325.1971959624
101325.1714961769
101325.146286519
101325.1217868662
101325.0984211199
101325.0765470423
101325.0566957553
101325.039287212
101325.0248641647
101325.0137899397
101325.0064949748
101325.0031760252
101325.0040809752
101325.0092230701
101325.0186958446
101325.032388256
101325.0502231905
101325.0717185557
101325.0960130376
101325.1216167585
101325.1475572679
101325.1734632752
101325.199370052
101325.2251161812
101325.2506560294
101325.2756967416
101325.3000562424
101325.3233083987
101325.3451493997
101325.3650434262
101325.3826345133
101325.3973661382
101325.4089115373
101325.4168116415
101325.4208735394
101325.4207977747
101325.4165606314
101325.4080132168
101325.3952944337
101325.3783774351
101325.3576886639
101325.3339970209
101325.3086992156
101325.2829166707
101325.2571653038
101325.2314408828
101325.2058581421
101325.1804668419
101325.1555228232
101325.1311496471
101325.1077566814
101325.0856245828
101325.0652784499
101325.0470066782
101325.0314757399
101325.0190194532
101325.0101509596
101325.0050908782
101325.0042967849
101325.0077873366
101325.0157565726
101325.0281510991
101325.0449606187
101325.0656088913
101325.089282839
101325.1144363001
101325.1399060637
101325.1652924828
101325.1906511663
101325.2158254154
101325.2407479392
101325.2652129519
101325.2891314305
101325.3120835508
101325.3338494878
101325.3540315376
101325.3721632726
101325.3877563165
101325.4005288422
101325.4099032992
101325.415711713
101325.4174729082
101325.4151553096
101325.4085123183
101325.3975417647
101325.3823155275
101325.3631743256
101325.3407773507
101325.3165758538
101325.2916661327
101325.2667673734
101325.2418586641
101325.217134398
101325.1925950838
101325.168437496
101325.1447850445
101325.1219528746
101325.1001623806
101325.0798929934
101325.0614636802
101325.0453674276
101325.0320666232
101325.0220412771
101325.0155861244
101325.0131760354
101325.0149768261
101325.021265416
101325.0319926023
101325.0472987508
101325.0666985079
101325.0892843494
101325.1137619778
101325.1388104605
101325.1638203309
101325.1888152482
101325.2136300612
101325.238229412
101325.262413787
101325.2860776921
101325.3089382683
101325.3307203756
101325.3510417787
101325.3696321954
101325.3858425288
101325.3994665766
101325.4099510627
101325.4169922706
101325.4201788839
101325.4193251443
101325.4141467374
101325.4045964651
101325.390632025
101325.3726107857
101325.3510454015
101325.3272670827
101325.3025216733
101325.2776809901
101325.2528623915
101325.2281121072
101325.2036253789
101325.1794833383
101325.1557755016
101325.1328540378
101325.1108517826
101325.090173391
101325.0712127215
101325.0543258899
101325.0399702598
101325.0287180734
101325.020798235
101325.0168045729
101325.0169207135
101325.0215013487
101325.030611893
101325.0443311726
101325.0624085896
101325.0840642969
101325.1079154099
101325.1326810188
101325.1574582572
101325.1822115161
101325.206805945
101325.2312662514
101325.2552999703
101325.2788737979
101325.3017059343
101325.3235943145
101325.344136399
101325.3631173335
101325.3799914468
101325.3944262401
101325.4059872657
101325.4142590267
101325.4189214318
101325.4195691811
101325.4159816673
101325.4080624299
101325.3955893594
101325.3789067762
101325.3584740116
101325.3353494931
101325.3109545103
101325.286300913
101325.2616593638
101325.2370297934
101325.2126843994
101325.1886197667
101325.1649638712
101325.1419830107
101325.119898678
101325.0989871733
101325.0795700883
101325.062141488
101325.0469587047
101325.0346576922
101325.0255299062
101325.0200984259
101325.0186459579
101325.021606145
101325.0290887384
101325.0412349491
101325.0578764275
101325.0784876904
101325.1016668426
101325.1261178379
101325.1507255262
101325.1753181415
101325.1997249534
101325.2240728194
101325.248053725
101325.2715930207
101325.2944331692
101325.3164638415
101325.3372500737
101325.356552742
101325.3740243343
101325.3892004806
101325.4017051326
101325.4111691251
101325.41714728
101325.4192955992
101325.4173109747
101325.4110126807
101325.4002147996
101325.3849844385
101325.365805995
101325.3435857855
101325.3196410784
101325.2952421236
101325.2708104856
101325.2463860976
101325.2221356436
101325.1982230286
101325.1746322005
101325.1516462697
101325.1294719876
101325.108409463
101325.0886626119
101325.0707465903
101325.0549216614
101325.0417140058
101325.0315342139
101325.0248061031
101325.0219313794
101325.0233168661
101325.0291733856
101325.0397465046
101325.0548481333
101325.0742254288
101325.0966677304
101325.1207063033
101325.1451438666
101325.1695978436
101325.193873278
101325.2180767543
101325.2420553337
101325.2655636082
101325.2884629933
101325.3105832618
101325.3316464746
101325.3512838802
101325.3692078185
101325.3850970647
101325.3984426545
101325.4089645414
101325.4161794414
101325.4197750576
101325.4193036292
101325.4146377196
101325.4055191678
101325.3919094965
101325.3740759099
101325.3529458138
101325.3296051268
101325.3055098124
101325.2813173561
101325.2571686878
101325.2329782573
101325.2092450132
101325.1857577148
101325.1628153193
101325.1405549518
101325.1193857976
101325.0994030856
101325.0810344623
101325.0646815979
101325.0507183007
101325.0395782488
101325.0317538096
101325.0275320833
101325.0274250513
101325.0317248863
101325.0406739451
101325.0542595029
101325.0722316489
101325.0937549448
101325.1173029926
101325.1415353033
101325.1658539798
101325.1900804302
101325.2140455892
101325.2380165476
101325.2615655358
101325.2845237759
101325.3067568821
101325.328030066
101325.3480381936
101325.3663649485
101325.3828827054
101325.3970182465
101325.4084834229
101325.4168628455
101325.4217520042
101325.4227857102
101325.4197024268
101325.4122415605
101325.4003518941
101325.3840011354
101325.3640499539
101325.3415504396
101325.3178440774
101325.2938840697
101325.2700327312
101325.2459961951
101325.2224073107
101325.1990717687
101325.1761578616
101325.1538834673
101325.1325524312
101325.112441581
101325.0936913584
101325.0768717308
101325.0622628893
101325.050279217
101325.0414187802
101325.036030216
101325.0345442691
101325.0373118803
101325.0446731499
101325.0566801282
101325.0732277193
101325.0935844408
101325.1165983073
101325.1404911309
101325.164660686
101325.1888249972
101325.2127006484
101325.2365646569
101325.2601568522
101325.2831580284
101325.3055346547
101325.3269668384
101325.3473517341
101325.3660874266
101325.3831375982
101325.3980006184
101325.4103512444
101325.4197469618
101325.425946904
101325.4283494611
101325.4267830465
101325.420964768
101325.4107476033
101325.3960773598
101325.3773593393
101325.3558829219
101325.3326103684
101325.3089840656
101325.2853933856
101325.261716173
101325.2380873466
101325.2149630535
101325.1921435758
101325.1698858177
101325.1484390839
101325.1281421129
101325.1091916335
101325.0918266526
101325.0767444764
101325.064000142
101325.0541856727
101325.047762252
101325.0449207602
101325.0462698045
101325.0520926312
101325.0625076152
101325.0775829255
101325.096656349
101325.1188885949
101325.1424466164
101325.1664363169
101325.1904550912
101325.2144114161
101325.2379282281
101325.2616214552
101325.284720853
101325.3072114457
101325.328840301
101325.3494616895
101325.3687507676
101325.38612235
101325.4018297516
101325.4149390263
101325.4252914552
101325.4326588597
101325.4363318959
101325.4363042685
101325.4320336986
101325.4234920341
101325.4105013996
101325.3932920161
101325.372759223
101325.3503753456
101325.3268937248
101325.30364434
101325.2803285062
101325.2568001961
101325.2338649958
101325.2111907702
101325.1889324256
101325.1674529673
101325.1469254262
101325.1278624678
101325.1099975758
101325.0945446623
101325.0810758176
101325.0704346826
101325.0629376829
101325.0590456917
101325.0589945001
101325.0633015371
101325.0721632404
101325.0856661607
101325.1034801858
101325.1246118006
101325.1479223745
101325.1715024749
101325.1954908329
101325.2193507811
101325.2428386433
101325.2664227444
101325.2896219195
101325.3121928138
101325.3340404267
101325.3548883638
101325.3745932371
101325.3924841463
101325.4087532875
101325.4226661813
101325.4339574754
101325.44226976
101325.4474018391
101325.4486103471
101325.4458929886
101325.4389906702
101325.4276614946
101325.4121019034
101325.3926838762
101325.3711487379
101325.3481941939
101325.3251035463
101325.3021046696
101325.2790388147
101325.2559695987
101325.2335483933
101325.2113828245
101325.1898988579
101325.1692475133
101325.1499054716
101325.131931418
101325.115739902
101325.1018721592
101325.0904441609
101325.0819609823
101325.077118858
101325.0756231328
101325.0786023508
101325.0859286346
101325.0978789836
101325.1142806115
101325.1343601423
101325.1569464495
101325.1804767744
101325.2040667015
101325.2279546191
101325.2515657336
101325.2747323879
101325.2981293209
101325.3208441726
101325.3428389503
101325.3639554747
101325.3839147309
101325.4025338489
101325.4190045038
101325.433872953
101325.4460003514
101325.4553121384
101325.4616127314
101325.4641077052
101325.4629504997
101325.4575563747
101325.447928113
101325.433978291
101325.416040421
101325.3952647811
101325.3730379364
101325.3501820978
101325.3275071127
101325.3047940878
101325.2817866953
101325.2596133089
101325.2375645783
101325.2160452518
101325.1953502485
101325.1757234801
101325.1576436297
101325.1408217951
101325.1265980875
101325.1144900251
101325.1051554414
101325.099154139
101325.0967359507
101325.0982518587
101325.1040723186
101325.1145297365
101325.1294153457
101325.1483985981
101325.170058168
101325.1933908363
101325.2168657816
101325.2404392771
101325.264108149
101325.2872705791
101325.3105199151
101325.333399513
101325.3555294613
101325.3769051895
101325.3971475746
101325.416238073
101325.4332795976
101325.4488481654
101325.4617928247
101325.4720119501
101325.4792877881
101325.4833877314
101325.4833644483
101325.479560128
101325.4715670033
101325.459265978
101325.4428873442
101325.4231165913
101325.4015753521
101325.3792523545
101325.3566395259
101325.3343805453
101325.31181644
101325.2893794385
101325.2676613832
101325.2462075703
101325.2254812587
101325.2056902677
101325.1873153836
101325.1703201581
101325.1554239384
101325.1427237652
101325.1326591531
101325.1256188419
101325.1223555957
101325.1222895735
101325.1269022848
101325.1357786107
101325.1492187368
101325.1668641004
101325.1877457975
101325.2104461038
101325.2338818509
101325.2572615886
101325.2808429888
101325.3042073766
101325.3269944449
101325.3501918922
101325.3724655386
101325.3940310986
101325.4146013641
101325.4339899195
101325.4518622028
101325.4675947159
101325.4814967938
101325.4927943632
101325.5009944378
101325.5063046351
101325.5076236316
101325.5053776999
101325.4988392017
101325.4882554035
101325.4734028642
101325.4550204688
101325.4340923145
101325.4122939055
101325.3901547022
101325.3679428678
101325.3460030271
101325.3234874033
101325.3020640796
101325.2807070343
101325.2599248175
101325.2400734614
101325.2213638935
101325.2043051073
101325.1885884871
101325.1755716497
101325.1649180232
101325.1567648477
101325.1523516989
101325.1515788256
101325.1545484495
101325.1619813736
101325.1739518548
101325.1901918911
101325.2101268265
101325.2321903277
101325.2553435507
101325.2787825752
101325.3019477902
101325.3255907414
101325.3483485968
101325.3712233738
101325.393846136
101325.4155779256
101325.4364663877
101325.4561689224
101325.4746055172
101325.4908886926
101325.5056552083
101325.5177041676
101325.5269055206
101325.5331736363
101325.5363036995
101325.5349824859
101325.5301731416
101325.5211174969
101325.50794356
101325.4909214054
101325.4710378421
101325.4495919186
101325.4279422591
101325.4060366512
101325.3843156801
101325.3625385394
101325.3404793877
101325.3196565514
101325.2988924664
101325.2789693219
101325.260077785
101325.2426969859
101325.2267680535
101325.2130781765
101325.2016167303
101325.193107486
101325.1873061031
101325.1856890042
101325.1871467103
101325.1934097003
101325.2037434607
101325.2186529565
101325.2373664768
101325.258956991
101325.2815450727
101325.3048695627
101325.3281710086
101325.3512609043
101325.374731084
101325.3968321879
101325.4199482472
101325.4418811713
101325.4629461789
101325.4830477359
101325.5018207745
101325.5190006855
101325.5339064802
101325.5469902273
101325.5574328236
101325.5643868792
101325.5686634536
101325.5693299931
101325.5656745531
101325.558202658
101325.5466381611
101325.531094458
101325.5124012894
101325.4915777263
101325.4702138287
101325.4488351403
101325.4271088403
101325.4060515315
101325.3842071855
101325.363030496
101325.3426514835
101325.3226182994
101325.3036216106
101325.2859067049
101325.2698400065
101325.2553043932
101325.2435920253
101325.2342507015
101325.2276584544
101325.2246099373
101325.2256327209
101325.2297902225
101325.239008188
101325.2523461308
101325.269855334
101325.2905553323
101325.3130531608
101325.3358099323
101325.3591204455
101325.3822908299
101325.4053100804
101325.4285101591
101325.4500790236
101325.4728997585
101325.4942985201
101325.5146766882
101325.5339573573
101325.5516526072
101325.5672904553
101325.5810684089
101325.5921649897
101325.600788568
101325.6054660704
101325.6076851816
101325.6056357555
101325.5997804941
101325.5897210167
101325.5757540161
101325.5582283621
101325.5384612013
101325.5172584888
101325.4961586735
101325.4751060072
101325.4536554122
101325.4333103426
101325.4112847552
101325.3914580495
101325.3715469771
101325.3521772705
101325.3343187014
101325.3178595088
101325.3030989894
101325.2903600949
101325.2805563918
101325.2735363084
101325.2691198482
101325.2687785007
101325.2724935924
101325.2796080584
101325.291749367
101325.3078257336
101325.3275202238
101325.3494764142
101325.3724070048
101325.3952019394
101325.4184128192
101325.4415110047
101325.4642461075
101325.4873857968
101325.5080556919
101325.5305324372
101325.5513924873
101325.57105129
101325.5894743584
101325.6056787582
101325.6199837805
101325.632178804
101325.6414833498
101325.6479355677
101325.6504675098
101325.6504481718
101325.6456104269
101325.6376772535
101325.625112647
101325.6090221048
101325.5900912424
101325.5696926029
101325.5486537111
101325.5277451727
101325.507022506
101325.4858902202
101325.4663686502
101325.4444093316
101325.4256486461
101325.4065470151
101325.3878256578
101325.3717115345
101325.3557121421
101325.3428450509
101325.3321694604
101325.3242897275
101325.3199256668
101325.3177748782
101325.3200622108
101325.3265773835
101325.3378722775
)
;

boundaryField
{
    inlet
    {
        type            calculated;
        value           uniform 101325.4243870899;
    }
    outlet
    {
        type            calculated;
        value           uniform 101325.3452732317;
    }
    frontAndBack
    {
        type            empty;
    }
}


// ************************************************************************* //
