/*--------------------------------*- C++ -*----------------------------------*\
| =========                 |                                                 |
| \\      /  F ield         | OpenFOAM: The Open Source CFD Toolbox           |
|  \\    /   O peration     | Version:  v2012                                 |
|   \\  /    A nd           | Website:  www.openfoam.com                      |
|    \\/     M anipulation  |                                                 |
\*---------------------------------------------------------------------------*/
FoamFile
{
    version     2.0;
    format      ascii;
    class       volScalarField;
    location    "0.0125";
    object      rho;
}
// * * * * * * * * * * * * * * * * * * * * * * * * * * * * * * * * * * * * * //

dimensions      [1 -3 0 0 0 0 0];


internalField   nonuniform List<scalar> 
1000
(
1.176540091336631
1.176516743270525
1.17656933819392
1.176610855794895
1.176659390411795
1.176703610031089
1.176740965354385
1.17677195632045
1.176797522543764
1.176814211532022
1.176818861078674
1.176818067171237
1.176814449276019
1.176805649804221
1.176789201843264
1.176764355140872
1.17673201449647
1.176693646070476
1.176650450931872
1.176603219706114
1.176552576619699
1.176499235700871
1.176444092340812
1.17638818409855
1.1763326191276
1.176278513942411
1.176226886133244
1.176178423589504
1.176133242444533
1.176091174009041
1.176053424135383
1.176025368354325
1.176013374407394
1.176012008266662
1.176012422990689
1.176014728795395
1.176021018704767
1.176033341416143
1.176053350852016
1.176081767348988
1.176118178756351
1.176161272761755
1.176209359327673
1.176260872083053
1.176314601850285
1.176369639878829
1.176425186827391
1.176480407840432
1.176534441518587
1.176586577721398
1.176636491206768
1.176684222867333
1.176729380815751
1.176769022855807
1.176795879597497
1.176805418542678
1.176806166881969
1.176805797291615
1.176803802472322
1.176798654791192
1.176788550819632
1.176771854886514
1.176747394652111
1.176714759083084
1.17667441310232
1.176627586121892
1.176575959337723
1.176521279481636
1.176465066768313
1.17640851150698
1.176352507697067
1.176297684764153
1.176244370762055
1.176192600431089
1.176142438230211
1.176095029382794
1.176054704519879
1.176029496557094
1.176021725650729
1.17602125112174
1.176021723557419
1.176023555143864
1.176028262974362
1.176037340003019
1.176052302281384
1.176074364086743
1.176104209474561
1.176141811809532
1.176186402299427
1.176236606954672
1.17629070591429
1.176346938304823
1.176403778769125
1.176460121430474
1.176515335647171
1.176569212878958
1.176621823973069
1.176673133296612
1.176721901515607
1.176763539315213
1.176789737525191
1.176797995673952
1.176798539008389
1.176798279721758
1.17679670121196
1.176792744801929
1.176784959064523
1.176771950456337
1.17675246678101
1.176725614797037
1.176691034373109
1.176649021832663
1.176600540374872
1.176547081414744
1.176490405836589
1.176432246567107
1.17637404125183
1.176316731598148
1.176260689306535
1.17620589174048
1.17615252598438
1.176102305418764
1.176060550840465
1.176035640662895
1.176028421576531
1.17602798859385
1.176028384723426
1.176029836935708
1.176033609427479
1.176040908064567
1.176053041851266
1.176071187274778
1.176096243493521
1.176128668988991
1.176168368911389
1.176214658066424
1.176266316238935
1.17632175338852
1.176379278681182
1.17643740300772
1.17649506548103
1.176551710582008
1.176607174126018
1.176661224881452
1.176712366559307
1.176755717834751
1.176782925523257
1.176791715463061
1.176792408790804
1.176792232841818
1.176791014639391
1.176787902407157
1.17678166172926
1.176771078529274
1.176754974470171
1.176732364353529
1.176702591342422
1.176665461221285
1.176621331072924
1.176571107515055
1.176516139850392
1.17645802654104
1.176398358679652
1.176338441571655
1.176279104808761
1.176220783701506
1.176164085946245
1.176111120018646
1.176067531185611
1.176041694792924
1.176034109655631
1.176033603680915
1.176033907446514
1.176035057472209
1.176038125767886
1.176044140727604
1.176054254433743
1.176069561743396
1.176090998625817
1.176119213358598
1.176154458328861
1.176196514394825
1.176244665802373
1.176297758666861
1.17635436442147
1.176413015218991
1.176472435179517
1.17653169533508
1.176590206788057
1.17664734629935
1.176701317100332
1.176747096893724
1.176776272188013
1.176786207141227
1.176787150789435
1.176787041292006
1.176786113377736
1.176783644514352
1.176778559979923
1.176769788861907
1.176756245284874
1.176736946435361
1.176711114431229
1.176678293223227
1.176638448130211
1.176592012894141
1.176539867662076
1.176483246497251
1.176423567231442
1.176362195267733
1.176300237758928
1.176238551657691
1.17617822092609
1.176121830128091
1.176075405517232
1.176047702086259
1.176039265541024
1.176038631514818
1.176038820370234
1.176039666587109
1.176042080813712
1.17604698770186
1.176055445211902
1.176068493025973
1.176087070164966
1.176111909907413
1.176143444065283
1.1761817239097
1.176226373887086
1.176276603597969
1.176331297116362
1.17638917368053
1.176448978740511
1.176509668388214
1.176570435595128
1.176630337288057
1.176687331072835
1.176736105060222
1.17676816996424
1.17678038252082
1.176782170201902
1.176782625115493
1.176782301705523
1.176780665536626
1.176776767624977
1.176769565835326
1.176758016817117
1.176741160943603
1.176718220100982
1.176688672455176
1.176652316362207
1.176609324999604
1.176560262325168
1.176506024877323
1.176447710654215
1.176386470011202
1.176323367111947
1.176259404962649
1.176195909248673
1.176135825575151
1.176085519019746
1.176053735167182
1.176042550233464
1.176040251492649
1.176039004318239
1.176038998042269
1.176040401484107
1.176044124887858
1.176051238281183
1.176062738155145
1.176079510076739
1.176102275738883
1.176131507119766
1.176167362890937
1.176209658386574
1.176257867554847
1.17631116566462
1.176368525768378
1.176428855003274
1.176491107271223
1.176554328333404
1.176617422449785
1.176677899142766
1.176730216150586
1.176766754426608
1.176783268713546
1.176786971922321
1.176788049284862
1.176788084448088
1.176786760711595
1.176783371928185
1.176777042589681
1.176766851021235
1.17675184685569
1.176731159666146
1.176704131927066
1.176670400841901
1.176629929468369
1.176583013397585
1.176530259307115
1.176472512798996
1.176410760504328
1.17634608307367
1.176279680973599
1.176213132250521
1.176149617922019
1.17609560496675
1.176059333916543
1.176043873187403
1.176040527985342
1.176039417130921
1.176039485696559
1.176040925613743
1.176044425777356
1.176050790746456
1.176060879212343
1.176075574166153
1.17609567931838
1.176121808650691
1.176154313958169
1.176193242155679
1.176238319310969
1.176288974462794
1.176344413431528
1.176403720916723
1.176465913397721
1.176529906862306
1.176594389480588
1.17665704974165
1.176712881688241
1.176754363921605
1.176775840267157
1.176781568856565
1.176782696759489
1.17678303958234
1.176782077807001
1.176779316607799
1.176773939659786
1.176765156619699
1.176752119363894
1.176733984264666
1.1767100195106
1.176679690249656
1.176642719538208
1.176599131418572
1.176549261555558
1.176493719080787
1.176433318963413
1.176369060261106
1.176302179687954
1.176234302749386
1.176168284923188
1.176110082024268
1.17606835646404
1.17604816647164
1.17604316835203
1.176042142015191
1.176042020642702
1.176043177804779
1.176046194416063
1.176051789270064
1.176060720718769
1.176073786848555
1.17609175026293
1.176115254943076
1.176144768358195
1.176180531373658
1.176222512546941
1.176270390075572
1.17632358259386
1.176381320384698
1.176442693991093
1.176506627764658
1.176571801506894
1.176636190088786
1.176695414817027
1.176741935804979
1.176768984955865
1.176777727199857
1.176779034172875
1.176779567707743
1.176778923983178
1.176776722417933
1.176772193845184
1.176764613441858
1.176753197062909
1.176737136583695
1.176715697598262
1.176688286686852
1.176654492142652
1.176614128209444
1.176567278550416
1.176514309465691
1.176455841543393
1.176392737722948
1.176326161235162
1.176257680475318
1.176189790543278
1.176127717956829
1.17608028710027
1.176054464546134
1.176046759501136
1.176045638849574
1.176045321574819
1.176046197900696
1.176048701455781
1.176053526283408
1.17606136474238
1.176072966521643
1.176089067331102
1.176110308122206
1.176137195883554
1.176170075123253
1.176209083914057
1.176254111038857
1.176304784758716
1.176360507806713
1.176420497646939
1.176483760591379
1.176549015840254
1.176614465305015
1.17667649926978
1.176727958129899
1.176760955610035
1.176773911846805
1.176776003543909
1.176776550279862
1.176776182361719
1.17677448448431
1.176770723565094
1.176764230985438
1.176754267777965
1.176740043499426
1.17672082165246
1.17669598351912
1.176665048227735
1.176627701894275
1.176583846981461
1.176533642653036
1.176477510570424
1.176416136131887
1.176350532131113
1.176282144471688
1.176213165891553
1.176147969055077
1.176094946735426
1.176062726904475
1.176051069192291
1.176049315130871
1.176048909827736
1.176049519197704
1.176051547263798
1.176055655020991
1.176062480820153
1.176072741534238
1.176087162033179
1.176106383459837
1.176130930330886
1.176161201951663
1.17619744131979
1.176239687507103
1.176287743138311
1.176341180525583
1.176399366955672
1.176461437788051
1.176526220069499
1.176592100792465
1.176656168117134
1.176712091079299
1.176751182777729
1.176769491096406
1.176773342951714
1.176773830416839
1.176773676809052
1.176772414467176
1.176769339050234
1.176763826924571
1.176755181782723
1.176742628181537
1.176725419131575
1.17670291166157
1.176674582822198
1.176640042348359
1.176599070874003
1.17655166872322
1.176498084198086
1.176438825020233
1.17637472350115
1.176307054085789
1.176237734476195
1.176170308561481
1.176112192088884
1.176073225150524
1.176056395282676
1.176053093349936
1.176052696736179
1.176053096453194
1.176054710913824
1.176058175032852
1.176064082353488
1.176073114100754
1.176085989500661
1.176103359272075
1.176125764526616
1.176153638449003
1.176187291034576
1.17622686727775
1.176272305947627
1.176323325220771
1.17637943389213
1.176439912543942
1.176503733130501
1.176569442127801
1.176634672548752
1.176694283580363
1.176739449532029
1.176763913300574
1.176770897889004
1.176771391618273
1.176771419698472
1.176770478540339
1.17676797016536
1.176763304389369
1.176755835584956
1.176744805410922
1.176729449798541
1.176709095466387
1.176683185016684
1.176651276688141
1.176613067200596
1.17656843723705
1.176517492174756
1.176460584248009
1.176398364442861
1.176331906215422
1.176262884194154
1.176194186842874
1.176131911754804
1.176086191286477
1.17606319657907
1.176057113765193
1.176056659791059
1.176056851816567
1.176058128648643
1.176061033251023
1.176066120529961
1.17607402794886
1.176085469804927
1.176101116961316
1.176121532354909
1.176147173399906
1.176178393737028
1.176215413634457
1.176258277402119
1.176306824619046
1.176360690068025
1.176419296703884
1.176481770697703
1.17654682198406
1.176612489405768
1.176674819274704
1.176725651460575
1.176756650450034
1.176767959968657
1.17676931333964
1.176769295684975
1.176768571094846
1.176766552679628
1.176762628788506
1.176756204268992
1.17674654725008
1.17673288915245
1.176714532424661
1.176690886124521
1.176661463847713
1.176625898616323
1.176583980995312
1.176535702424787
1.176481283941612
1.176421214495697
1.176356375939323
1.176288212436752
1.176219080567517
1.176153771156115
1.176101715859076
1.176071811285833
1.176061674519373
1.176060537941686
1.176060706037498
1.176061689704469
1.176064122685304
1.176068500078129
1.17607540900051
1.176085548267178
1.176099603613557
1.176118160552225
1.176141701771407
1.176170618973066
1.176205192386004
1.176245549447936
1.176291630130133
1.176343177816541
1.176399735353825
1.176460573657716
1.176524577064146
1.176590089782302
1.176654054693697
1.176709652596272
1.176747386312861
1.176764321317494
1.176767519913966
1.176767359087258
1.176766851113679
1.176765194144449
1.176761873649903
1.176756337215303
1.176747905197333
1.17673580977061
1.176719323848731
1.176697818339247
1.176670764647316
1.176637742628987
1.176598471306646
1.176552849648839
1.176500988847796
1.176443243321825
1.176380312886491
1.176313409626291
1.176244499983594
1.176177345415291
1.176119886626684
1.17608260884925
1.176067213213996
1.176064443316979
1.176064594275288
1.176065328420979
1.176067364123229
1.176071130237257
1.176077165753544
1.176086133488779
1.176098728045401
1.176115561511755
1.176137141982403
1.176163889073138
1.176196125593637
1.17623404445732
1.176277673412737
1.176326853876401
1.176381234353904
1.176440227999875
1.176502893017896
1.176567784638665
1.176632468641231
1.176691727447806
1.176736072492496
1.176759264656883
1.176765487020308
1.176765778752471
1.176765281807355
1.176763874027404
1.176761059274053
1.17675628776182
1.176748933049768
1.176738246090127
1.176723484672551
1.176703990803851
1.176679197095218
1.176648631228312
1.176611946483165
1.176568960286843
1.176519688927227
1.176464375949143
1.176403557958489
1.176338236250422
1.176270094167599
1.17620208754064
1.176140445844289
1.17609582507085
1.176074172668466
1.176068618309675
1.17606843875015
1.17606902596482
1.176070708313542
1.176073967086922
1.176079253802326
1.176087181869308
1.176098447181191
1.176113684598016
1.17613342458971
1.176158111333056
1.176188105503668
1.176223656290456
1.176264864649639
1.17631165632226
1.17636377449307
1.176420757041956
1.176481816529682
1.176545693200664
1.176610424498707
1.176672092160647
1.176722371397146
1.176752358161962
1.176763225633857
1.176764476377408
1.176763925330087
1.176762785274194
1.176760349378085
1.176756176565696
1.176749721082562
1.176740269563348
1.176727072616514
1.176709445079727
1.176686782027021
1.176658563979948
1.176624386479316
1.176583997133277
1.176537328711535
1.176484524709497
1.17642598150627
1.176362501508794
1.176295513053443
1.176227401766392
1.176162977084673
1.176111800727129
1.176083053848336
1.176073361102473
1.176072275900981
1.176072860676665
1.176074184797406
1.176077006883294
1.176081654890337
1.176088669441721
1.176098725972063
1.17611248246864
1.176130497605868
1.176153240056006
1.176181099393678
1.176214365784599
1.176253198309138
1.176297598938067
1.176347397712023
1.176402235458773
1.176461481940887
1.176524085277284
1.176588387974973
1.176651341443381
1.1767063563985
1.176743511598402
1.176759999991095
1.176763122136676
1.176762868835807
1.176761847058433
1.176759707762897
1.176756033336384
1.176750324732197
1.176741944563488
1.176730150157652
1.176714234903417
1.176693568788507
1.176667593542813
1.176635847191596
1.176598010153533
1.176553940605647
1.176503696484593
1.176447563353274
1.176386160034316
1.176320662608951
1.176253064898651
1.176187088864429
1.176130479997249
1.176093977055446
1.176079118146033
1.176076296073689
1.176076612529606
1.176077716894568
1.176080161042165
1.176084272375405
1.176090515501404
1.176099509368699
1.176111912478444
1.176128313027794
1.176149215326453
1.176175043970293
1.176206125994817
1.17624266534855
1.176284721192791
1.176332190983147
1.176384802556581
1.176442069114636
1.176503127828816
1.176566543591818
1.176629916513424
1.176688295998232
1.176732328286852
1.176755116797249
1.176761698660421
1.176762015968386
1.176761067421032
1.176759214796802
1.176755909037613
1.176750786338741
1.176743299758936
1.176732747058333
1.176718416393477
1.176699642161827
1.176675815474215
1.176646417545034
1.176611069476069
1.176569565673203
1.176521892826216
1.176468247983073
1.176409095878329
1.176345370403857
1.17627875510312
1.176212166283757
1.176151574796986
1.176107499328803
1.17608633672038
1.176080537486666
1.17608021346703
1.176081194071686
1.176083244962383
1.17608694177879
1.176092564935845
1.176100652918178
1.176111844265008
1.176126742869704
1.176145890373771
1.176169764825598
1.176198748319054
1.176233089068178
1.176272884081099
1.176318073813027
1.176368442282442
1.17642359799634
1.176482853410655
1.176545036370218
1.17660823184662
1.176668649658093
1.176718485324231
1.176748464476959
1.176759675956772
1.176761260712047
1.176760610548291
1.176759010007016
1.17675601273121
1.176751331858372
1.176744531731469
1.176735002992114
1.176722057059574
1.176705019235801
1.176683243722132
1.176656137560398
1.176623225911177
1.176584220514147
1.176539052401269
1.176487869888471
1.176431047849997
1.176369331153694
1.176304099434875
1.176237687831503
1.176174674909312
1.176124079406018
1.176095366013758
1.176085528522913
1.176084007056586
1.176084603354229
1.176086315198991
1.176089633689469
1.176094776600417
1.176102171420451
1.176112365079745
1.176125924057585
1.176143403069064
1.176165341722709
1.17619221492632
1.176224361344585
1.176261941823893
1.176304933079767
1.176353136988249
1.176406196958865
1.176463547903916
1.176524223370792
1.176586630978024
1.176647907163615
1.176702055777655
1.176739543167854
1.176756258999111
1.176760320413626
1.176760386398146
1.176759087011211
1.176756469293738
1.17675209781591
1.176745739165589
1.176736932359215
1.176725100746626
1.176709612477483
1.176689789795818
1.176664950686958
1.176634500694432
1.176598027582207
1.176555359110239
1.176506586946209
1.176452059984665
1.176392416072625
1.176328802057433
1.176263164781979
1.17619901050456
1.176143507828103
1.176106884885181
1.176091810157507
1.176088344491754
1.176088025565506
1.176089307165676
1.176092108468925
1.176096832687027
1.176103738766022
1.17611323974582
1.176125789240789
1.176141857809624
1.176161973656959
1.176186702045958
1.17621654043824
1.176251806248724
1.1762925810967
1.176338706096456
1.1763898098992
1.176445337235265
1.176504437597971
1.176565755059484
1.176627082347951
1.176683861760747
1.176727588278268
1.176751154080271
1.176758614721594
1.176759733937461
1.176759238668464
1.176757240483498
1.176753380500168
1.176747403616532
1.176738999995666
1.176727806186186
1.176713397115537
1.176695230958543
1.176672614904184
1.176644783749412
1.176611072445918
1.176571084971886
1.176524778595974
1.17647246931996
1.176414792046941
1.176352789496474
1.176288159014467
1.176223667678499
1.176164886050149
1.176121505809295
1.176099686054344
1.176093306508952
1.17609229903924
1.176092619843842
1.176094544099529
1.176098478342559
1.176104793055129
1.176113831520561
1.176125871382856
1.17614113365752
1.176159896895762
1.176182622836805
1.17620994799162
1.176242517185518
1.176280754844662
1.176324702059352
1.176373979269693
1.176427898221398
1.176485556090511
1.176545715498328
1.176606603940753
1.176664886996153
1.176713447869965
1.176744011352727
1.17675599439957
1.176758274300403
1.176758525190875
1.176757491385481
1.176754813455485
1.176749907720742
1.176742260476831
1.176731451519686
1.176717266384448
1.176699622193823
1.176678333492735
1.176652927718999
1.176622623740569
1.176586434125734
1.176543455217248
1.176493456672216
1.176437612554421
1.17637693993885
1.176313621609365
1.176236994120771
)
;

boundaryField
{
    inlet
    {
        type            calculated;
        value           uniform 1.176427481426743;
    }
    outlet
    {
        type            calculated;
        value           uniform 1.176203027545358;
    }
    frontAndBack
    {
        type            empty;
    }
}


// ************************************************************************* //
