/*--------------------------------*- C++ -*----------------------------------*\
| =========                 |                                                 |
| \\      /  F ield         | OpenFOAM: The Open Source CFD Toolbox           |
|  \\    /   O peration     | Version:  v2012                                 |
|   \\  /    A nd           | Website:  www.openfoam.com                      |
|    \\/     M anipulation  |                                                 |
\*---------------------------------------------------------------------------*/
FoamFile
{
    version     2.0;
    format      ascii;
    class       volScalarField;
    location    "0.0125";
    object      T;
}
// * * * * * * * * * * * * * * * * * * * * * * * * * * * * * * * * * * * * * //

dimensions      [0 0 0 1 0 0 0];


internalField   nonuniform List<scalar> 
1000
(
300.0089033303948
300.0071471783676
300.0135434513805
300.0184757295009
300.0233084151271
300.0276356817871
300.031683853472
300.0353721795812
300.0385292192156
300.0406726077594
300.0414345631817
300.0415756424363
300.0414195727573
300.0406458804341
300.039026531024
300.0365218466973
300.0332068056119
300.0292317174078
300.0247350807524
300.0198121206631
300.0145375248327
300.0089930881755
300.0032774646988
299.9975019173042
299.9917827337048
299.9862348106955
299.9809608774866
299.976028266861
299.9714446913695
299.9671881139839
299.963376595369
299.960552788282
299.9593623710021
299.9592474562305
299.9593103090344
299.9595554209795
299.9601908053842
299.9614373044541
299.9634660924382
299.9663510325611
299.9700520907573
299.9744372929056
299.979335361427
299.9845869874275
299.9900687440301
299.9956873694769
300.001360407224
300.007001591697
300.0125219503966
300.0178480964519
300.022946148824
300.0278198683782
300.0324291694482
300.0364739768355
300.0392129694197
300.0401843017528
300.0402586770176
300.0402184754854
300.0400126947242
300.0394865559559
300.0384553146275
300.0367518483789
300.0342564958768
300.030927144526
300.026811014419
300.0220333683578
300.0167656284459
300.0111859664694
300.0054494963912
299.9996777130194
299.9939619069068
299.9883663877329
299.9829247120307
299.9776404901886
299.9725203473197
299.9676812023381
299.9635651089818
299.9609920531623
299.9601989194712
299.960150583066
299.9601989231376
299.9603859774571
299.9608665637056
299.9617931096915
299.9633203705841
299.965572280528
299.9686186450926
299.9724567172581
299.9770079882422
299.9821321759511
299.9876537040204
299.9933928246622
299.9991938442049
300.004943895765
300.0105786236812
300.0160767546371
300.0214455282852
300.0266813181896
300.0316576724563
300.0359063270936
300.0385794972757
300.0394221202658
300.0394775603597
300.0394511062834
300.0392900460824
300.0388863549706
300.0380919326977
300.0367645811836
300.0347765178135
300.0320365768229
300.0285079790719
300.0242209209103
300.0192736445579
300.0138182985425
300.0080345429967
300.0020992031992
299.9961589888582
299.9903100110737
299.9845902148825
299.9789973004253
299.9735503727533
299.968424329685
299.9641623090786
299.9616196003845
299.9608827066504
299.960838512589
299.9608789516511
299.9610271911706
299.9614122735321
299.9621572870398
299.9633958435134
299.9652480217778
299.9678055838679
299.9711153002312
299.9751674524645
299.9798920605439
299.985164537801
299.9908225609325
299.9966935352782
300.0026254721267
300.0085101011338
300.0142907365437
300.0199506327196
300.0254662034141
300.0306847768571
300.0351082939935
300.0378844817412
300.0387813724575
300.0388521195813
300.0388341708674
300.0387098752462
300.0383923187938
300.0377555462337
300.0366756737411
300.0350324587799
300.0327253586005
300.0296873261565
300.0258985099345
300.0213953058777
300.0162701840319
300.0106607937203
300.0047302230205
299.9986408250533
299.9925258045545
299.986469829607
299.9805173354723
299.9747303570347
299.9693241216519
299.9648748913027
299.9622376487252
299.9614633939877
299.9614117503999
299.9614427623506
299.9615601576589
299.9618733595353
299.9624873415028
299.9635196991312
299.9650821816672
299.9672703133347
299.9701502439915
299.9737477047721
299.9780402899351
299.9829549018258
299.9883737273709
299.9941509280789
300.0001366709568
300.006200730586
300.0122482991367
300.0182192829222
300.0240500903263
300.0295573878445
300.0342287330739
300.037205702097
300.0382194298641
300.0383157197757
300.0383045525605
300.0382098784962
300.0379579696418
300.037439166006
300.0365441930383
300.0351622449087
300.0331930261904
300.0305571442617
300.0272080366486
300.0231421286036
300.018403638374
300.0130823365978
300.0073041156934
300.0012136333697
299.9949502121985
299.9886268339604
299.9823309574525
299.9761732218034
299.970417446151
299.9656787828832
299.9628509729723
299.9619898124732
299.9619250987836
299.9619443828475
299.9620307676464
299.9622772055454
299.9627780811482
299.9636413832956
299.9649732311534
299.966869463767
299.9694049119541
299.9726236263633
299.9765308070328
299.9810880824483
299.9862147378332
299.9917968384568
299.9977036362209
300.0038070711345
300.01000059343
300.0162018386619
300.022314569875
300.0281303847164
300.0331072861601
300.0363791184645
300.0376252497182
300.037807664604
300.037854087373
300.0378210937008
300.0376541514669
300.0372564268412
300.036521583167
300.0353431558414
300.0336232177963
300.0312823562181
300.0282673004243
300.0245574434263
300.0201704186534
300.0151637327049
300.0096288322011
300.0036777288857
299.9974277876158
299.9909875888767
299.9844594839647
299.9779787720076
299.9718461139418
299.9667112425497
299.9634669409778
299.9623252413859
299.9620906029167
299.961963301456
299.9619626657662
299.9621059292105
299.9624860010579
299.9632121037247
299.9643859501
299.9660979246834
299.9684216777992
299.9714053627537
299.9750651451933
299.9793821399301
299.9843026139936
299.9897423506412
299.9955964998502
300.0017534932441
300.0081065462008
300.0145582608199
300.0209968118988
300.0271680655589
300.0325065177182
300.0362348125485
300.0379198766032
300.0382977430677
300.038407677006
300.0384112699247
300.0382762069722
300.0379304321203
300.0372846119732
300.0362446989064
300.0347137127016
300.0326028241112
300.0298449203253
300.0264029538931
300.0222731198007
300.0174855399356
300.0121020789146
300.0062089850696
299.9999069047687
299.9933060890527
299.9865290304959
299.9797367754965
299.9732540049881
299.9677408473062
299.9640385342796
299.9624603842195
299.9621189269013
299.9620055399645
299.9620125433099
299.9621595287597
299.9625168120341
299.9631665182636
299.9641962952641
299.9656962667672
299.9677484585542
299.9704155232236
299.9737333436079
299.9777066758386
299.9823075222193
299.9874775663395
299.993135711134
299.9991885032162
300.0055355350802
300.0120661548634
300.0186464764164
300.0250406195696
300.0307377920867
300.0349705895195
300.0371619742509
300.0377465025909
300.0378615933015
300.0378965775945
300.037798446256
300.0375167068785
300.0369680632603
300.0360718694672
300.0347415797863
300.032891102484
300.0304457489509
300.0273509201711
300.0235783256704
300.0191303806227
300.0140412944349
300.0083731814508
300.0022091640353
299.9956511577202
299.9888253438085
299.9818976013348
299.9751593721581
299.9692185923431
299.9649595421486
299.9628986569318
299.9623884760632
299.9622837154149
299.9622713302944
299.962389452779
299.9626973764564
299.9632684719722
299.964180145575
299.9655138558988
299.967347435303
299.9697466021086
299.9727590505464
299.9764093376406
299.980694219441
299.98558081131
299.9910097351361
299.9969023915691
300.0031659252608
300.0096905296831
300.0163414556972
300.0229120370675
300.0289554728382
300.0337024533604
300.0364624818314
300.037354512236
300.0374878741782
300.0375423173833
300.0374766377673
300.0372520008997
300.0367899215972
300.0360164397565
300.0348515391964
300.0332127530054
300.0310251310188
300.0282281021254
300.0247796290523
300.0206607226274
300.0158798792541
300.010474432955
300.0045076665447
299.9980675982376
299.9912729010077
299.9842836142137
299.9773543842291
299.9710186881593
299.9661773171019
299.9635415001928
299.9627550089932
299.962640620622
299.9626082374715
299.9626976919845
299.9629532449362
299.9634457391101
299.9642458450307
299.9654300823327
299.9670735400641
299.9692416300091
299.9719860837941
299.9753420413412
299.9793235646493
299.98391926535
299.9890911612663
299.9947782517274
300.0009006304346
300.0073568486263
300.0140161692432
300.0206950847535
300.0270252480254
300.032276130474
300.0356431290334
300.0369651423769
300.0371785738221
300.0372343630383
300.0371968246094
300.0370235817676
300.0366398308063
300.0359773465296
300.0349607234884
300.0335093005493
300.0315479165894
300.0290134224497
300.0258567272937
300.0220457716675
300.0175705649121
300.0124473052601
300.0067189747268
300.0004554698445
299.9937601041698
299.9867804058835
299.9797401482583
299.9730856379534
299.9676735829004
299.9643847866687
299.9631948279517
299.9630157833047
299.9629744137389
299.9630366176043
299.9632436346724
299.9636629337431
299.964359672399
299.9654070213448
299.9668789645311
299.9688409354163
299.9713464576915
299.9744362680231
299.9781351416781
299.9824470329619
299.9873517579317
299.9928056235776
299.9987440122937
300.0050786407712
300.0116897706903
300.0184127721565
300.0249504988554
300.0306569539041
300.0346458201548
300.036513948019
300.0369069787288
300.0369567191849
300.0369410475569
300.036812244898
300.0364984403961
300.035935998746
300.0350538679054
300.0337729185251
300.0320169208464
300.0297202537328
300.0268295363079
300.0233049190234
300.0191239830807
300.0142867205263
300.0088184235167
300.0027708555122
299.9962289070949
299.9893226000315
299.9822476253079
299.9753656816306
299.9694337220625
299.9654562518232
299.9637383514973
299.9634013071083
299.9633608234819
299.9634016259953
299.9635664236724
299.9639200233098
299.9645230084899
299.9654449116317
299.9667591416456
299.9685321111103
299.9708190399808
299.9736641260881
299.9770989865726
299.9811383903017
299.9857760514983
299.9909831657596
299.9967095573961
300.0028817614123
300.0093948222886
300.0161003770882
300.0227568677367
300.0288397218646
300.0334484324701
300.0359446550137
300.036657339009
300.0367077174589
300.0367105837107
300.0366145529844
300.0363586078169
300.0358825256037
300.0351204258047
300.0339949250402
300.0324280523657
300.0303510961258
300.0277071633867
300.0244511534903
300.0205520885296
300.0159977549947
300.0107988620542
300.0049913062032
299.9986414713517
299.991858861626
299.9848143501909
299.9778027246048
299.9714463685316
299.9667795858927
299.9644324234595
299.9638115213524
299.9637651818252
299.9637847833004
299.9639151168779
299.9642116040185
299.9647308841339
299.9655380228691
299.9667059267811
299.9683030659381
299.97038689
299.9730040725703
299.9761906888273
299.9799691939606
299.9843440771642
299.9892989267412
299.9947964261274
300.0007776395586
300.0071533464744
300.0137918583937
300.0204930208811
300.0268533822374
300.0320403187753
300.0352033960513
300.036357383859
300.0364954766496
300.0364936751914
300.0364197414087
300.0362137902587
300.0358134083864
300.0351578655741
300.0341724800413
300.0327788218038
300.0309057045844
300.0284928151852
300.0254905008116
300.0218612873413
300.017583768737
300.0126570300498
300.0071035807822
300.0009732685018
299.9943560398854
299.9873992397726
299.9803433571469
299.9736773740373
299.9683640365482
299.9653115753352
299.9642768698883
299.9641608532366
299.964178011071
299.9642784188044
299.964526765003
299.9649735840451
299.9656788025683
299.9667137473298
299.9681484074951
299.9700425386476
299.9724453963393
299.9753969434497
299.9789257583859
299.9830448179326
299.9877479592873
299.9930089513479
299.9987810944419
300.0049899380031
300.0115215866254
300.018207039639
300.0247343212137
300.0304076105468
300.0342579122019
300.0359859127707
300.0363122859703
300.0362958747373
300.0362440426595
300.0360749719217
300.0357361593555
300.0351712354151
300.0343108478772
300.0330766446016
300.0313944271043
300.0291999915763
300.026439383044
300.0230697057111
300.0190622566212
300.0144066875399
300.0091143006402
300.003221215247
299.9967987990565
299.9899707061968
299.9829375972918
299.9760833722258
299.9702185623775
299.9664135227646
299.9648420269399
299.9645592899674
299.9645746977627
299.9646496345016
299.9648574280254
299.9652418513579
299.9658579184285
299.9667732818342
299.9680588366144
299.9697770522488
299.9719797793468
299.9747098323783
299.978000138857
299.9818703615646
299.9863232994294
299.9913427287726
299.9968927343339
300.0029133812095
300.0093085143119
300.0159306609613
300.022531398365
300.0285783173803
300.0331032670441
300.035469740648
300.0361046499769
300.0361344161915
300.0360837084708
300.035940063211
300.0356528549821
300.0351659824767
300.0344155222293
300.0333250388542
300.0318187918703
300.0298296302556
300.0272996429987
300.0241806135584
300.0204371340247
300.0160505386664
300.011022447549
300.0053776668717
299.9991709081033
299.992504309657
299.9855496312167
299.9786085321074
299.9723168518756
299.9677623363148
299.9655521981558
299.9649852402489
299.9649669101115
299.9650268477644
299.9651985715749
299.9655312079314
299.9660708420425
299.9668800835371
299.9680299598385
299.9695852657896
299.9716001373571
299.9741198980308
299.9771813429137
299.98080988164
299.9850157879463
299.9897914468742
299.9951106076277
300.0009260646933
300.0071574139031
300.0136760584695
300.020281698733
300.0265744945921
300.0317050152383
300.0347648108979
300.0358736953656
300.0360013156268
300.0359450866525
300.0358287579794
300.0355802068727
300.0351544247057
300.0344957210941
300.0335313021058
300.0321846954842
300.0303859794128
300.0280734147405
300.0251939754611
300.0217063651344
300.0175847968982
300.0128223711784
300.007433686387
300.0014591443268
299.9949805841264
299.9881437340898
299.9811920452339
299.9746163949474
299.9693927974389
299.9664585206523
299.9654691432212
299.9653583704639
299.9654180589899
299.9655532157141
299.9658412766516
299.9663157152481
299.9670317115385
299.9680582051143
299.9694623523635
299.9713011693996
299.9736224817025
299.9764660363167
299.9798614279831
299.9838248658396
299.9883565179236
299.9934390001161
299.9990356146157
300.0050819997948
300.0114707691459
300.0180327467786
300.0244568247163
300.0300706393413
300.0338619157534
300.0355443477113
300.0358629202192
300.0358370723369
300.0357328111365
300.0355145230711
300.0351395946669
300.0345571015595
300.0337020028071
300.0324985125716
300.0308745217096
300.0287657331494
300.0261151650898
300.0228756551624
300.0190145635688
300.0145173820456
300.0093899804965
300.0036614534704
299.9973949043345
299.990710312898
299.983811132937
299.9770772300997
299.9712992032411
299.9675732737743
299.9660565724058
299.9657685112328
299.9658008109125
299.9659135348255
299.9661630165729
299.9665826739787
299.9672199280478
299.9681379530613
299.9694039586622
299.9710779755237
299.9732114681453
299.9758477601009
299.9790202117343
299.9827496143646
299.9870419757545
299.9918867945196
299.9972562545237
300.0031006333487
300.0093318358263
300.0158033749888
300.022270329987
300.0282275319835
300.0327205776309
300.0350458676259
300.0357174608722
300.035749835911
300.0356530460304
300.0354640078707
300.0351266967321
300.0346039883115
300.0338400708698
300.0327632849832
300.0313009887918
300.0293852552389
300.0269539394725
300.0239540847307
300.02034700148
300.0161116772456
300.0112467143214
300.0057721763616
299.9997354422409
299.9932317727245
299.9864329479159
299.9796365915539
299.9734521404213
299.9689533130914
299.966793183688
299.9662012340755
299.9661681581916
299.966268249616
299.9664775891211
299.9668549345473
299.9674289061836
299.9682544653515
299.9693967847665
299.9709174982569
299.9728718822178
299.9753087179263
299.9782669876025
299.9817720029534
299.9858336369792
299.9904457792809
299.9955863496717
300.0012153536684
300.0072625840967
300.013608384657
300.0200573050474
300.026222572807
300.0313078440147
300.0343668697137
300.0355108580074
300.0356725601657
300.0356062172388
300.03544289985
300.0351370642853
300.0346594383232
300.0339655655964
300.032993264657
300.0316722683734
300.029933723142
300.0277117200357
300.0249457363509
300.0215872954006
300.0176069519337
300.0129976311454
300.0077744258409
300.0019755459659
299.995676961011
299.9890194302499
299.9822412513773
299.9758097339526
299.9706454591774
299.9677146200181
299.9667104746315
299.9665551718778
299.9666160355955
299.9667907659323
299.9671294924031
299.9676544424299
299.9684092479234
299.969449731362
299.9708337086063
299.9726177918531
299.9748570476185
299.9775999336546
299.9808809959464
299.9847166252414
299.9891044137401
299.9940241052961
299.9994392688513
300.0052921951383
300.0114842183984
300.0178528084525
300.0241057380388
300.0296311635668
300.0334563472929
300.0351619909167
300.0355764053925
300.035583136525
300.035450548211
300.0351834415023
300.0347373856228
300.0340885610298
300.0331899265542
300.0319826370763
300.0304022124836
300.0283794849464
300.0258448470152
300.0227376190775
300.0190157079699
300.0146615030217
300.0096843180835
300.0041197130928
299.9980327359936
299.9915403860577
299.9848413240792
299.9782933988562
299.9726283190171
299.9688901687937
299.9673514496223
299.966997697451
299.966965142095
299.9670959564277
299.9673818911639
299.96786410294
299.9685690204373
299.9695388000266
299.9708197380068
299.9724598579109
299.9745130641758
299.97703703958
299.980082540918
299.9836819416493
299.9878435424039
299.9925510924306
299.9977666548064
300.0034335227317
300.0094648626061
300.0157222708622
300.0219804839634
300.0277744228703
300.0322362817011
300.0346408922844
300.0354021552774
300.0355163557393
300.0354658180176
300.0352619260148
300.0348680610642
300.0342581911065
300.0334006977275
300.0322584907055
300.0307881903159
300.0289345009116
300.0266267162806
300.0237867372261
300.0203466765155
300.0162660904703
300.0115405793149
300.0062023464003
300.0003161386737
299.9939883268548
299.9873921033853
299.9808098625153
299.9748101801643
299.970382348858
299.968155159005
299.9675039772435
299.9674011379272
299.9674338762989
299.9676302795751
299.968031849385
299.9686764021497
299.9695989771636
299.9708279129729
299.9723857648537
299.9743009551319
299.9766205954188
299.979409624233
299.9827338157722
299.9866364403786
299.9911216451794
299.9961506549897
300.0016531988698
300.0075371226247
300.0136761830065
300.0198896102428
300.025837266312
300.0307930401364
300.033912708919
300.0351366843807
300.0353704679422
300.035397037815
300.0352924183232
300.0350195696919
300.0345189445249
300.0337377809615
300.0326297555538
300.0311673729564
300.0293409074955
300.0271435017175
300.0245513932609
300.0214999947491
300.0178631866127
300.0134747550254
300.0082202672818
300.0021926350054
299.9957685247956
299.9899149134745
299.9841266260421
)
;

boundaryField
{
    inlet
    {
        type            fixedValue;
        value           uniform 300;
    }
    outlet
    {
        type            temperatureOutletNSCBC;
        pInf            101325;
        gamma           1.4;
        etaAc           1;
        fieldInf        1;
        lInf            2.25;
        value           uniform 299.9815786193569;
    }
    frontAndBack
    {
        type            empty;
    }
}


// ************************************************************************* //
