/*--------------------------------*- C++ -*----------------------------------*\
| =========                 |                                                 |
| \\      /  F ield         | OpenFOAM: The Open Source CFD Toolbox           |
|  \\    /   O peration     | Version:  v2012                                 |
|   \\  /    A nd           | Website:  www.openfoam.com                      |
|    \\/     M anipulation  |                                                 |
\*---------------------------------------------------------------------------*/
FoamFile
{
    version     2.0;
    format      ascii;
    class       volVectorField;
    location    "0.0125";
    object      U;
}
// * * * * * * * * * * * * * * * * * * * * * * * * * * * * * * * * * * * * * //

dimensions      [0 1 -1 0 0 0 0];


internalField   nonuniform List<vector> 
1000
(
(0.002919442225228692 0 0)
(0.03444058628311322 0 0)
(0.04259861142595973 0 0)
(0.05763593359413342 0 0)
(0.07142237100155506 0 0)
(0.08440078486880496 0 0)
(0.09560349597163263 0 0)
(0.105168830942537 0 0)
(0.1131760573270131 0 0)
(0.1185072213528747 0 0)
(0.1200655466026184 0 0)
(0.1200155842786153 0 0)
(0.1191470411638524 0 0)
(0.1166410828383072 0 0)
(0.1118385469310799 0 0)
(0.1045307776082212 0 0)
(0.09497361835614276 0 0)
(0.08359963694877984 0 0)
(0.07077713713223543 0 0)
(0.05675165572213352 0 0)
(0.04171552379965369 0 0)
(0.0258862483844581 0 0)
(0.009535375425413849 0 0)
(-0.007025222374280688 0 0)
(-0.02346741629049768 0 0)
(-0.03946303772598099 0 0)
(-0.05471078487659456 0 0)
(-0.06900598317970856 0 0)
(-0.08231895696884431 0 0)
(-0.09471015241559151 0 0)
(-0.1058280470398103 0 0)
(-0.1140781777172905 0 0)
(-0.1175845154261874 0 0)
(-0.1179669066567883 0 0)
(-0.1178377477314755 0 0)
(-0.1171412204905381 0 0)
(-0.1152920454756099 0 0)
(-0.1116623878460617 0 0)
(-0.1057652055357661 0 0)
(-0.09738762386544815 0 0)
(-0.08665006081049695 0 0)
(-0.07393761952742345 0 0)
(-0.05974790475898296 0 0)
(-0.04454417470846118 0 0)
(-0.02868458766987798 0 0)
(-0.01243638030926364 0 0)
(0.00396590982834476 0 0)
(0.02027321201872303 0 0)
(0.03622638433807867 0 0)
(0.0516165590912481 0 0)
(0.0663540486779504 0 0)
(0.0804506105348911 0 0)
(0.09377962997450018 0 0)
(0.1054697694586057 0 0)
(0.113391610598634 0 0)
(0.1162160263761383 0 0)
(0.1164436653151701 0 0)
(0.1163117412729847 0 0)
(0.1157337906201035 0 0)
(0.1142099701149935 0 0)
(0.1112282569015775 0 0)
(0.1063015786613876 0 0)
(0.09908339076729578 0 0)
(0.08945116178013111 0 0)
(0.07754356354909889 0 0)
(0.06372458150905466 0 0)
(0.04848788547144301 0 0)
(0.03234633506187105 0 0)
(0.01575142995770885 0 0)
(-0.0009409188421559209 0 0)
(-0.01746987763301736 0 0)
(-0.03365739381144673 0 0)
(-0.04940402815718596 0 0)
(-0.06468663386943907 0 0)
(-0.07948610420390111 0 0)
(-0.09348367480964806 0 0)
(-0.1054057488079537 0 0)
(-0.1128550367641748 0 0)
(-0.1151316725266956 0 0)
(-0.1152572104391199 0 0)
(-0.1151508095494942 0 0)
(-0.114590557408163 0 0)
(-0.1132062321378536 0 0)
(-0.1105252585459417 0 0)
(-0.1061066866412369 0 0)
(-0.09959221958954441 0 0)
(-0.09078114190682572 0 0)
(-0.07967935297423342 0 0)
(-0.06651242837895961 0 0)
(-0.05168899162344762 0 0)
(-0.03571977404410694 0 0)
(-0.01912119211063943 0 0)
(-0.002338528071931091 0 0)
(0.01429772766141581 0 0)
(0.03059255455554111 0 0)
(0.0464880583773871 0 0)
(0.06202008213785252 0 0)
(0.07717683470164073 0 0)
(0.0915692796506653 0 0)
(0.1038390936530323 0 0)
(0.1115660474670729 0 0)
(0.1140251307615808 0 0)
(0.114200324884743 0 0)
(0.1140839716192564 0 0)
(0.113642498752981 0 0)
(0.1124675648806338 0 0)
(0.1101708251396732 0 0)
(0.1063322050251769 0 0)
(0.1005824593957885 0 0)
(0.09265646437039629 0 0)
(0.08244979272866933 0 0)
(0.07005154118812033 0 0)
(0.05574320539572949 0 0)
(0.03996175182876784 0 0)
(0.02323006313038498 0 0)
(0.006064881783109481 0 0)
(-0.01111297997342687 0 0)
(-0.02803449717300068 0 0)
(-0.04458710469573524 0 0)
(-0.0607627670055554 0 0)
(-0.07650627261213672 0 0)
(-0.09133400729681776 0 0)
(-0.1036802578154005 0 0)
(-0.1110422184984038 0 0)
(-0.1131538727452744 0 0)
(-0.1132651784751747 0 0)
(-0.1131857897947247 0 0)
(-0.1127351377403719 0 0)
(-0.1116277311083396 0 0)
(-0.1094717060063577 0 0)
(-0.1058883454385406 0 0)
(-0.1005302863121618 0 0)
(-0.09313319929149938 0 0)
(-0.08355969578209088 0 0)
(-0.07183656819757213 0 0)
(-0.05816917746325735 0 0)
(-0.04292035147454859 0 0)
(-0.02655583106003518 0 0)
(-0.009570530078593639 0 0)
(0.007591212188565947 0 0)
(0.02460846599709732 0 0)
(0.04132226208678342 0 0)
(0.05769748132279159 0 0)
(0.07366200306859887 0 0)
(0.08875288306148285 0 0)
(0.1015302173692176 0 0)
(0.1095587434518032 0 0)
(0.1121726994361381 0 0)
(0.1123886132453765 0 0)
(0.1122999017719756 0 0)
(0.1119644201322049 0 0)
(0.1110384525017009 0 0)
(0.1091978300290295 0 0)
(0.1060748474302477 0 0)
(0.1013224616846044 0 0)
(0.09464859307831806 0 0)
(0.08586096791338201 0 0)
(0.07490358767693332 0 0)
(0.06187943618793994 0 0)
(0.04705350048716206 0 0)
(0.03082681045207296 0 0)
(0.01367523415293303 0 0)
(-0.003935104020906946 0 0)
(-0.0216260480539382 0 0)
(-0.03914933515153367 0 0)
(-0.05636458429274403 0 0)
(-0.07309418341707409 0 0)
(-0.08873395297138817 0 0)
(-0.1016188560182767 0 0)
(-0.1092507389516044 0 0)
(-0.1114736482508729 0 0)
(-0.1116115038288579 0 0)
(-0.1115528328690085 0 0)
(-0.1111941704230913 0 0)
(-0.1102940267282446 0 0)
(-0.1085169963915289 0 0)
(-0.1055302547287608 0 0)
(-0.1010103771229136 0 0)
(-0.09468173914679977 0 0)
(-0.08635122114504258 0 0)
(-0.07594366953038324 0 0)
(-0.06352643277231756 0 0)
(-0.04931239353498091 0 0)
(-0.03363884059128981 0 0)
(-0.01692487958621186 0 0)
(0.0003913482878082646 0 0)
(0.0179277956744776 0 0)
(0.03541594626142514 0 0)
(0.05269164331353052 0 0)
(0.06956470590650436 0 0)
(0.08548830025809515 0 0)
(0.09898569684851612 0 0)
(0.1075986539072054 0 0)
(0.1105466025997443 0 0)
(0.1108312345971578 0 0)
(0.1107695563815776 0 0)
(0.1105189880999539 0 0)
(0.1097845968853511 0 0)
(0.108286363214746 0 0)
(0.1056982486287669 0 0)
(0.1017001453608375 0 0)
(0.09600079404294097 0 0)
(0.08837247090868722 0 0)
(0.07868252205563528 0 0)
(0.06691994381853864 0 0)
(0.05321238155575038 0 0)
(0.0378234448121634 0 0)
(0.0211205685046069 0 0)
(0.0035173835498027 0 0)
(-0.01459131074633519 0 0)
(-0.03287837440377457 0 0)
(-0.05108517460610603 0 0)
(-0.0688989424190365 0 0)
(-0.08557252630031568 0 0)
(-0.0993162940459822 0 0)
(-0.1075192771175017 0 0)
(-0.1100213712087046 0 0)
(-0.1102134821348846 0 0)
(-0.1101602276907469 0 0)
(-0.1098575149289727 0 0)
(-0.1090945202316096 0 0)
(-0.1075841821062 0 0)
(-0.1050360142502044 0 0)
(-0.1011583718015397 0 0)
(-0.09568660409526905 0 0)
(-0.08840754580828869 0 0)
(-0.07918778988481946 0 0)
(-0.06799828084875635 0 0)
(-0.05492813349883176 0 0)
(-0.04018358906685183 0 0)
(-0.02406928038669398 0 0)
(-0.006948476556634751 0 0)
(0.01081016414984426 0 0)
(0.02888456183458985 0 0)
(0.04700689075283352 0 0)
(0.06486832378846638 0 0)
(0.08184494718304337 0 0)
(0.09632612312160246 0 0)
(0.1057554802828253 0 0)
(0.1092390096903166 0 0)
(0.1096285818775006 0 0)
(0.109487040142686 0 0)
(0.1091115023057855 0 0)
(0.1083892691690993 0 0)
(0.1070615984854392 0 0)
(0.104856066617935 0 0)
(0.1014804583009273 0 0)
(0.09664541624419326 0 0)
(0.09009392858063361 0 0)
(0.08163162436684622 0 0)
(0.07115420731334687 0 0)
(0.05866745038748952 0 0)
(0.04429670591241973 0 0)
(0.02828301042997248 0 0)
(0.01095782496564078 0 0)
(-0.007305147937516548 0 0)
(-0.02614848596920865 0 0)
(-0.04522444591812451 0 0)
(-0.06406729978357195 0 0)
(-0.08174134272518604 0 0)
(-0.09636334046594634 0 0)
(-0.1053521570140731 0 0)
(-0.1081271114435578 0 0)
(-0.1083165343963029 0 0)
(-0.1080463800931275 0 0)
(-0.1073839105386709 0 0)
(-0.1064842906893904 0 0)
(-0.1050533115004735 0 0)
(-0.1028311943870648 0 0)
(-0.09955513380653387 0 0)
(-0.09496351867617019 0 0)
(-0.08881022017866233 0 0)
(-0.08089868636162553 0 0)
(-0.07111537703921579 0 0)
(-0.05944987890674695 0 0)
(-0.04600061610525807 0 0)
(-0.03096688362195345 0 0)
(-0.01462395896908065 0 0)
(0.00271569604046066 0 0)
(0.02073581876776175 0 0)
(0.03913104439587142 0 0)
(0.05754190302568465 0 0)
(0.0751901086251159 0 0)
(0.09039077829515688 0 0)
(0.1008603680299319 0 0)
(0.1053701123808484 0 0)
(0.1061025175606417 0 0)
(0.1059948505242314 0 0)
(0.1055026664376912 0 0)
(0.1047594266318448 0 0)
(0.103526550040874 0 0)
(0.1016076409784009 0 0)
(0.09876097659293427 0 0)
(0.09470800055106582 0 0)
(0.08916697973834779 0 0)
(0.08190002691583372 0 0)
(0.07274627399018753 0 0)
(0.06163839074285771 0 0)
(0.04861063958674215 0 0)
(0.03379854709438318 0 0)
(0.01742246057044911 0 0)
(-0.0002395793567137223 0 0)
(-0.01886677408369198 0 0)
(-0.03808886666884521 0 0)
(-0.05741158472287778 0 0)
(-0.0758616339925639 0 0)
(-0.09148865931900732 0 0)
(-0.1018219939542236 0 0)
(-0.1059812877992355 0 0)
(-0.1065917898054871 0 0)
(-0.1064357679485867 0 0)
(-0.1058953181593428 0 0)
(-0.1050620377602716 0 0)
(-0.1037258631077882 0 0)
(-0.1017093159858106 0 0)
(-0.09879975539328036 0 0)
(-0.09474967259922612 0 0)
(-0.08930493032878122 0 0)
(-0.08224506781030005 0 0)
(-0.07341504556393454 0 0)
(-0.06274482735293918 0 0)
(-0.05025907049419806 0 0)
(-0.03607583826505093 0 0)
(-0.02039080530598246 0 0)
(-0.003451302967595169 0 0)
(0.01445854919947494 0 0)
(0.03300999821085844 0 0)
(0.05179293458551681 0 0)
(0.07008634885586697 0 0)
(0.0863614574701706 0 0)
(0.09836144871425098 0 0)
(0.1044036352253091 0 0)
(0.1057490265895574 0 0)
(0.1057478668024375 0 0)
(0.1053268642471149 0 0)
(0.1046381002779703 0 0)
(0.1034788952410698 0 0)
(0.101680804357569 0 0)
(0.0990614398474305 0 0)
(0.09539890071288942 0 0)
(0.09044181653627738 0 0)
(0.08394563790942533 0 0)
(0.07570789162343969 0 0)
(0.06559435691495979 0 0)
(0.05355744796138055 0 0)
(0.03964505116802376 0 0)
(0.02399512205765167 0 0)
(0.006819929252141288 0 0)
(-0.01159890527505943 0 0)
(-0.03089466170585673 0 0)
(-0.05057256429620394 0 0)
(-0.06976269557696237 0 0)
(-0.08666454726155125 0 0)
(-0.09868722311358767 0 0)
(-0.1043336649726845 0 0)
(-0.105475255048113 0 0)
(-0.1054401200993694 0 0)
(-0.1049951320627279 0 0)
(-0.1042790122531822 0 0)
(-0.1030722323019485 0 0)
(-0.1012317522471586 0 0)
(-0.09858347583694896 0 0)
(-0.09492007438668131 0 0)
(-0.09001724472249857 0 0)
(-0.08366186742860325 0 0)
(-0.0756764188592952 0 0)
(-0.06593981538157567 0 0)
(-0.05440580757515356 0 0)
(-0.04111413870332039 0 0)
(-0.02618833056141019 0 0)
(-0.009820002192967629 0 0)
(0.007743188919341134 0 0)
(0.02618847079745322 0 0)
(0.04511447351510204 0 0)
(0.06389604816845432 0 0)
(0.08120112550284253 0 0)
(0.09476171529895283 0 0)
(0.1025242225152545 0 0)
(0.1048253876748791 0 0)
(0.1049783335535976 0 0)
(0.1046803642765974 0 0)
(0.1040881614915428 0 0)
(0.1030583722922075 0 0)
(0.1014269995180798 0 0)
(0.09903885373738065 0 0)
(0.09570792522540841 0 0)
(0.09121641602857802 0 0)
(0.08534036990273623 0 0)
(0.07787401247978772 0 0)
(0.06865011474268526 0 0)
(0.05756080898434949 0 0)
(0.04457629959314697 0 0)
(0.02975435333213148 0 0)
(0.01323741039937469 0 0)
(-0.004746944567511025 0 0)
(-0.02386719182620413 0 0)
(-0.04365845931813007 0 0)
(-0.06336720869163967 0 0)
(-0.08141799238205645 0 0)
(-0.09517800314688303 0 0)
(-0.102549783039258 0 0)
(-0.1045375918088713 0 0)
(-0.104644925030346 0 0)
(-0.1043233827052164 0 0)
(-0.1037245840724783 0 0)
(-0.1026668039636999 0 0)
(-0.1010087853676027 0 0)
(-0.09859970483082901 0 0)
(-0.09526019482269427 0 0)
(-0.09079299649754885 0 0)
(-0.08500383282522719 0 0)
(-0.07771681308793731 0 0)
(-0.06878944139457922 0 0)
(-0.05813100641171309 0 0)
(-0.04571956862272079 0 0)
(-0.03161054545512618 0 0)
(-0.01593289789377385 0 0)
(0.001116129799411711 0 0)
(0.01926049498239981 0 0)
(0.03812577402082967 0 0)
(0.05717024703923114 0 0)
(0.07529879789594915 0 0)
(0.09035217200070721 0 0)
(0.09994409970379109 0 0)
(0.1035927099584971 0 0)
(0.1040392339940285 0 0)
(0.1038588135085345 0 0)
(0.1033874748703049 0 0)
(0.1025120239644268 0 0)
(0.1010629613744944 0 0)
(0.09890219129708516 0 0)
(0.09587041541920326 0 0)
(0.09177671270260331 0 0)
(0.08641831382138697 0 0)
(0.07959860495373169 0 0)
(0.07114111727157704 0 0)
(0.06090666964145677 0 0)
(0.04881338970205019 0 0)
(0.03485355815381438 0 0)
(0.01910131589313451 0 0)
(0.001719164417299592 0 0)
(-0.01701982306831097 0 0)
(-0.03670031986852471 0 0)
(-0.05666883262163017 0 0)
(-0.07561600998179324 0 0)
(-0.09103883013483778 0 0)
(-0.1003340574209556 0 0)
(-0.1035623317355729 0 0)
(-0.1039235584781202 0 0)
(-0.1037205416337896 0 0)
(-0.1032511254085857 0 0)
(-0.1023526967458605 0 0)
(-0.1008822618517298 0 0)
(-0.09870488670842824 0 0)
(-0.09566117603537036 0 0)
(-0.09157309131542919 0 0)
(-0.08626324360886872 0 0)
(-0.0795657409788306 0 0)
(-0.07133455592480899 0 0)
(-0.06145731359018755 0 0)
(-0.04987221055878441 0 0)
(-0.03658179440981297 0 0)
(-0.02165832135726661 0 0)
(-0.005243657064682794 0 0)
(0.01244005723408046 0 0)
(0.03106527135510495 0 0)
(0.050153455648854 0 0)
(0.0688272860407088 0 0)
(0.0851914185029484 0 0)
(0.0966371010378804 0 0)
(0.1019527110278974 0 0)
(0.102967410131166 0 0)
(0.1029091093060639 0 0)
(0.1025699599627648 0 0)
(0.1018596376649347 0 0)
(0.1006040684534922 0 0)
(0.09867376558721573 0 0)
(0.09592751616268688 0 0)
(0.09219199401718187 0 0)
(0.08728188959956973 0 0)
(0.08101540962945837 0 0)
(0.07322056764084152 0 0)
(0.06374571473646005 0 0)
(0.05247789644459216 0 0)
(0.03936244124410638 0 0)
(0.02441681232719469 0 0)
(0.007740835892782096 0 0)
(-0.01045885559929382 0 0)
(-0.02982958843270142 0 0)
(-0.04981171184156736 0 0)
(-0.06935779534645065 0 0)
(-0.0862571419884835 0 0)
(-0.09755691623801309 0 0)
(-0.1023701349246081 0 0)
(-0.1032258639524845 0 0)
(-0.1031300360327472 0 0)
(-0.1027902765456858 0 0)
(-0.1020615690050138 0 0)
(-0.1007893636677373 0 0)
(-0.09884712007815423 0 0)
(-0.09608845356876178 0 0)
(-0.09234828311433921 0 0)
(-0.08746335873062749 0 0)
(-0.0812804506042482 0 0)
(-0.07365823517732537 0 0)
(-0.06447601902348823 0 0)
(-0.05364898973889122 0 0)
(-0.04114343710102857 0 0)
(-0.02698650299927785 0 0)
(-0.01126929512379544 0 0)
(0.005840702916966822 0 0)
(0.02406794401359033 0 0)
(0.04299642834709516 0 0)
(0.06193460266628028 0 0)
(0.07934765702124116 0 0)
(0.09258496349153526 0 0)
(0.09975809672332701 0 0)
(0.1017670858749885 0 0)
(0.1018613519006268 0 0)
(0.1016458383250871 0 0)
(0.1011125694086797 0 0)
(0.1000559627568084 0 0)
(0.0983592778288548 0 0)
(0.09589012167416405 0 0)
(0.09248812816351741 0 0)
(0.08798239608189071 0 0)
(0.08220571104540481 0 0)
(0.07499537745691702 0 0)
(0.06619769091592033 0 0)
(0.05568353107614558 0 0)
(0.04336801985190546 0 0)
(0.02922669004199291 0 0)
(0.01330685612533953 0 0)
(-0.004249539294703134 0 0)
(-0.02316126114092676 0 0)
(-0.04295762915592573 0 0)
(-0.06279857836953637 0 0)
(-0.08086321136137073 0 0)
(-0.09413685145478909 0 0)
(-0.1007959433738146 0 0)
(-0.1024791026803002 0 0)
(-0.1025227399179108 0 0)
(-0.1023132824795282 0 0)
(-0.1017575098871937 0 0)
(-0.1006904260670971 0 0)
(-0.09898867934337421 0 0)
(-0.09651330161165871 0 0)
(-0.09310674680999814 0 0)
(-0.08861442425883646 0 0)
(-0.08289409563071308 0 0)
(-0.07581289641626711 0 0)
(-0.0672503596708023 0 0)
(-0.05711096913477683 0 0)
(-0.04533879629773955 0 0)
(-0.03192844765107525 0 0)
(-0.01693073762003022 0 0)
(-0.0004640014318434026 0 0)
(0.01725587571962359 0 0)
(0.03588265306429859 0 0)
(0.05485211620375751 0 0)
(0.07297584344808311 0 0)
(0.08782715659642518 0 0)
(0.09694341729209439 0 0)
(0.1003070732064075 0 0)
(0.100717143722107 0 0)
(0.1006163032909861 0 0)
(0.100254910828061 0 0)
(0.09940855391396823 0 0)
(0.09795445683282647 0 0)
(0.09576453339145331 0 0)
(0.09268810419824761 0 0)
(0.08856195229421636 0 0)
(0.08322953386809896 0 0)
(0.07654097027882652 0 0)
(0.06834975378884499 0 0)
(0.05852172069314326 0 0)
(0.04695335852412967 0 0)
(0.03358979645254673 0 0)
(0.01843786805932656 0 0)
(0.001585075694174556 0 0)
(-0.01675721105265347 0 0)
(-0.03620114050818053 0 0)
(-0.05606712730958398 0 0)
(-0.07493726291796887 0 0)
(-0.09003696491502271 0 0)
(-0.09871343129000752 0 0)
(-0.1016042814260405 0 0)
(-0.1018942688235399 0 0)
(-0.1017970793282411 0 0)
(-0.1014070290309677 0 0)
(-0.1005489552528199 0 0)
(-0.09909067359852906 0 0)
(-0.09689992366868828 0 0)
(-0.09382313003029719 0 0)
(-0.08970888322704995 0 0)
(-0.08442173281585018 0 0)
(-0.07783731212675016 0 0)
(-0.06983960465474817 0 0)
(-0.06032957365575956 0 0)
(-0.04923832000546668 0 0)
(-0.03653838776039117 0 0)
(-0.02225123192759352 0 0)
(-0.006454859410414507 0 0)
(0.01069025461595277 0 0)
(0.0288967061127068 0 0)
(0.04769370118610831 0 0)
(0.06619187875542229 0 0)
(0.08239555556004594 0 0)
(0.09346567972214941 0 0)
(0.09846183072676586 0 0)
(0.09943765717545654 0 0)
(0.09949060302835754 0 0)
(0.09926352888928505 0 0)
(0.09863337702364655 0 0)
(0.09742307089969743 0 0)
(0.09551341379667971 0 0)
(0.09276006837449775 0 0)
(0.08900252935098929 0 0)
(0.08409035723807978 0 0)
(0.07788503959720901 0 0)
(0.07024973319849552 0 0)
(0.06105147213141893 0 0)
(0.05017732077360068 0 0)
(0.03755291273555418 0 0)
(0.02315684073936473 0 0)
(0.007034269147502683 0 0)
(-0.01066798096178235 0 0)
(-0.02963999730651631 0 0)
(-0.04932903498226646 0 0)
(-0.06865112407991532 0 0)
(-0.08527350711154802 0 0)
(-0.09605672044369314 0 0)
(-0.1004778323270546 0 0)
(-0.1012645234907757 0 0)
(-0.1012618171525896 0 0)
(-0.1010156969332974 0 0)
(-0.1003625228873629 0 0)
(-0.09914594379488935 0 0)
(-0.09723841426743 0 0)
(-0.09448751873767068 0 0)
(-0.0907401190800485 0 0)
(-0.08586319756860682 0 0)
(-0.07974022907299262 0 0)
(-0.07226208664027534 0 0)
(-0.06333046425090183 0 0)
(-0.0528699878999043 0 0)
(-0.04083993987263262 0 0)
(-0.02724152007840471 0 0)
(-0.01212239423973769 0 0)
(0.004402183785055156 0 0)
(0.0221030976879106 0 0)
(0.04059757145793316 0 0)
(0.05920553149305539 0 0)
(0.07638023902494706 0 0)
(0.08928584634982609 0 0)
(0.09610146660128523 0 0)
(0.09804727227069669 0 0)
(0.09823392293206668 0 0)
(0.09814730691997139 0 0)
(0.09771683115051449 0 0)
(0.09675320349720716 0 0)
(0.09512842500415181 0 0)
(0.0926985746041869 0 0)
(0.08930648051669603 0 0)
(0.08480248794635513 0 0)
(0.07905400135214061 0 0)
(0.07193469110728144 0 0)
(0.06331879300727293 0 0)
(0.05309124457025995 0 0)
(0.04116555071336292 0 0)
(0.02749957868213506 0 0)
(0.01210694652748441 0 0)
(-0.004916248355848384 0 0)
(-0.02333019404048363 0 0)
(-0.04268840005815849 0 0)
(-0.0621582908911049 0 0)
(-0.07989892540582808 0 0)
(-0.09275615298018131 0 0)
(-0.09899828736749107 0 0)
(-0.1006141392453732 0 0)
(-0.1006810683661636 0 0)
(-0.1005823015355574 0 0)
(-0.1001167855402582 0 0)
(-0.099131782943832 0 0)
(-0.09750033803553879 0 0)
(-0.09507079557979152 0 0)
(-0.09168639511112335 0 0)
(-0.08721209342781312 0 0)
(-0.08153444827261028 0 0)
(-0.07454932440358156 0 0)
(-0.06616074321400099 0 0)
(-0.05629090403172782 0 0)
(-0.04489102871910684 0 0)
(-0.03194871844987333 0 0)
(-0.01749286447523723 0 0)
(-0.00160571529977322 0 0)
(0.01553974214061394 0 0)
(0.03363028946119858 0 0)
(0.05212063585989968 0 0)
(0.06986251853261748 0 0)
(0.08442801555301738 0 0)
(0.09320532499034422 0 0)
(0.09645980300803517 0 0)
(0.09689541404705702 0 0)
(0.09695895062179791 0 0)
(0.09670046654537226 0 0)
(0.09597462822526162 0 0)
(0.0946246149018261 0 0)
(0.09251346283986646 0 0)
(0.08948181785660538 0 0)
(0.08537580834849812 0 0)
(0.08006512023237072 0 0)
(0.07343230540488199 0 0)
(0.0653598996638083 0 0)
(0.05573455965680239 0 0)
(0.04446342009737412 0 0)
(0.03149060507290233 0 0)
(0.01680945885403817 0 0)
(0.0004793990577704232 0 0)
(-0.01732693873869249 0 0)
(-0.03625109051275695 0 0)
(-0.05562800287735914 0 0)
(-0.07406265291011162 0 0)
(-0.08877848389313336 0 0)
(-0.09705283936835142 0 0)
(-0.09980539786363582 0 0)
(-0.1000981886936768 0 0)
(-0.1001111937246014 0 0)
(-0.09980513000850967 0 0)
(-0.09904476626777048 0 0)
(-0.0976807512463575 0 0)
(-0.09556734914388736 0 0)
(-0.09254253221225478 0 0)
(-0.08846458430851163 0 0)
(-0.08322021777033602 0 0)
(-0.07671007665356856 0 0)
(-0.06884121064745283 0 0)
(-0.05953393383214971 0 0)
(-0.0487329430943918 0 0)
(-0.03641615722270655 0 0)
(-0.02259960902813409 0 0)
(-0.007342127056626195 0 0)
(0.0092264568278082 0 0)
(0.02684774724215815 0 0)
(0.04508000302293393 0 0)
(0.06308214056232428 0 0)
(0.07893741850104687 0 0)
(0.08968078636026776 0 0)
(0.09448733934337659 0 0)
(0.09551505010764426 0 0)
(0.09567354434679017 0 0)
(0.0955533819008848 0 0)
(0.09505592884409439 0 0)
(0.09398136069353377 0 0)
(0.09218698764334173 0 0)
(0.08951309512731107 0 0)
(0.08580205044204316 0 0)
(0.08092079046059543 0 0)
(0.07475611174158639 0 0)
(0.06719929066490486 0 0)
(0.05814333377429678 0 0)
(0.04749347127448295 0 0)
(0.03518322591321817 0 0)
(0.02118963819742695 0 0)
(0.005545422329845449 0 0)
(-0.01162675245957837 0 0)
(-0.03003766299950493 0 0)
(-0.04915379842392752 0 0)
(-0.06794014869320368 0 0)
(-0.08414043543926326 0 0)
(-0.09455782824061851 0 0)
(-0.09875123286361491 0 0)
(-0.09956368618782969 0 0)
(-0.09962672017309229 0 0)
(-0.09946090767048273 0 0)
(-0.09891020935248432 0 0)
(-0.09780328662402563 0 0)
(-0.09599485561606376 0 0)
(-0.09331743643327992 0 0)
(-0.08962196054022427 0 0)
(-0.08479451209315343 0 0)
(-0.07874118616780956 0 0)
(-0.07137271663367153 0 0)
(-0.062607247884154 0 0)
(-0.05238263493820441 0 0)
(-0.04066682348871454 0 0)
(-0.0274639469207969 0 0)
(-0.01281840917989518 0 0)
(0.003168044723862424 0 0)
(0.02028973115313039 0 0)
(0.03818343578836077 0 0)
(0.05619230478363442 0 0)
(0.07287149348222194 0 0)
(0.08548988737359409 0 0)
(0.09207036167584941 0 0)
(0.0940671879198567 0 0)
(0.09426085695912002 0 0)
(0.09431121863070335 0 0)
(0.09400437726874267 0 0)
(0.09318796056507277 0 0)
(0.09170433872583293 0 0)
(0.0893872768847081 0 0)
(0.08606747508634205 0 0)
(0.08160576922424449 0 0)
(0.07589372947328946 0 0)
(0.06883355012469231 0 0)
(0.06032610014694422 0 0)
(0.05027646669013083 0 0)
(0.03860963850184746 0 0)
(0.02528728568503544 0 0)
(0.01032165965551867 0 0)
(-0.006201176096408059 0 0)
(-0.0240611856524096 0 0)
(-0.04282524606669935 0 0)
(-0.06168442407277355 0 0)
(-0.07889547654949697 0 0)
(-0.09140882389700419 0 0)
(-0.09740026754579231 0 0)
(-0.09901231277919127 0 0)
(-0.09907253660129289 0 0)
(-0.09907544750981966 0 0)
(-0.09870575999091466 0 0)
(-0.09784317427932479 0 0)
(-0.09633379521898096 0 0)
(-0.09400270767088194 0 0)
(-0.09068476813151492 0 0)
(-0.08625819390356987 0 0)
(-0.08063479439803817 0 0)
(-0.0737370430975697 0 0)
(-0.06548991966657544 0 0)
(-0.05582787353460207 0 0)
(-0.04470669976978885 0 0)
(-0.03211469475566505 0 0)
(-0.01807999112051962 0 0)
(-0.002679530303254073 0 0)
(0.01392448739126212 0 0)
(0.03142317012107301 0 0)
(0.04928424315400851 0 0)
(0.06644532112154009 0 0)
(0.0806660874854585 0 0)
(0.08919708249624544 0 0)
(0.0923495749405369 0 0)
(0.09284932281780646 0 0)
(0.09297726887534623 0 0)
(0.0928207253542925 0 0)
(0.09226017131673861 0 0)
(0.09108936461515944 0 0)
(0.08913374386082763 0 0)
(0.08620972294303501 0 0)
(0.08216470290700831 0 0)
(0.0768872687762108 0 0)
(0.07028853164256919 0 0)
(0.06228534052187507 0 0)
(0.05279659937270773 0 0)
(0.04174795386309166 0 0)
(0.02908536977500769 0 0)
(0.01479608269392871 0 0)
(-0.001069722422904114 0 0)
(-0.01835033110289601 0 0)
(-0.03668771276776002 0 0)
(-0.05542902763517327 0 0)
(-0.07327175726934422 0 0)
(-0.08761019294799065 0 0)
(-0.09564380206344007 0 0)
(-0.09826064665484109 0 0)
(-0.09861815663008085 0 0)
(-0.09863041184090991 0 0)
(-0.09840287090494658 0 0)
(-0.09777049249240745 0 0)
(-0.09656153100690011 0 0)
(-0.09458872792137593 0 0)
(-0.09166282288917349 0 0)
(-0.08764058614302066 0 0)
(-0.08242980033029874 0 0)
(-0.07596632066653509 0 0)
(-0.06819401793800706 0 0)
(-0.05905942231513969 0 0)
(-0.04851664934342319 0 0)
(-0.03653806122691539 0 0)
(-0.02312775420984535 0 0)
(-0.00833334393550497 0 0)
(0.007726107024126141 0 0)
(0.02479794551500311 0 0)
(0.04243771529370689 0 0)
(0.05982251573310497 0 0)
(0.075186955616727 0 0)
(0.08575286563736566 0 0)
(0.09040620841949859 0 0)
(0.09152517363861828 0 0)
(0.09152605082491146 0 0)
(0.09152817372991404 0 0)
(0.09115857813837223 0 0)
(0.09028076774694861 0 0)
(0.08870351606061705 0 0)
(0.08621132617095734 0 0)
(0.08261364784409267 0 0)
(0.07777751857406749 0 0)
(0.07161824917009244 0 0)
(0.06407440282248779 0 0)
(0.05508996274374275 0 0)
(0.04460907103861723 0 0)
(0.03258051067318773 0 0)
(0.01897299070220209 0 0)
(0.003797824486925433 0 0)
(-0.01285014088531897 0 0)
(-0.03070206920074846 0 0)
(-0.04922488781420223 0 0)
(-0.06740532695215608 0 0)
(-0.08311902870477217 0 0)
(-0.09335803263632771 0 0)
(-0.0974303823154056 0 0)
(-0.09826757537570094 0 0)
(-0.09817248575059272 0 0)
(-0.0980472630111287 0 0)
(-0.0975755872019026 0 0)
(-0.0966343842265886 0 0)
(-0.09502847495609183 0 0)
(-0.09253764342239697 0 0)
(-0.08897065776927543 0 0)
(-0.08419856165285734 0 0)
(-0.07814985308627134 0 0)
(-0.07079072126096597 0 0)
(-0.06210351705283424 0 0)
(-0.05207090744901124 0 0)
(-0.04067212077280171 0 0)
(-0.02789357398269041 0 0)
(-0.01374738457288927 0 0)
(0.001702646996450878 0 0)
(0.01827827815742745 0 0)
(0.03561278888985114 0 0)
(0.05305139357774451 0 0)
(0.06923055062700542 0 0)
(0.08164730361904922 0 0)
(0.08819871757327759 0 0)
(0.09007184017840493 0 0)
(0.0902427241975278 0 0)
(0.09014763258877033 0 0)
(0.08985748974563894 0 0)
(0.08919709941108388 0 0)
(0.08797522085950901 0 0)
(0.08595547251151912 0 0)
(0.08289208107475406 0 0)
(0.0785834652472405 0 0)
(0.07289919712982661 0 0)
(0.06577819225011967 0 0)
(0.05720737806310753 0 0)
(0.04718961927392164 0 0)
(0.03571609019748336 0 0)
(0.02276048304105706 0 0)
(0.008303351344973961 0 0)
(-0.007626052956468228 0 0)
(-0.02486763148976864 0 0)
(-0.04302137516161678 0 0)
(-0.06130542106418661 0 0)
(-0.07804592730153381 0 0)
(-0.09035786152628719 0 0)
(-0.09640485677329709 0 0)
(-0.09792653671317865 0 0)
(-0.09799516522561925 0 0)
(-0.09776781136068034 0 0)
(-0.09731474115871323 0 0)
(-0.09650368585716171 0 0)
(-0.09518484674677612 0 0)
(-0.0931439403741145 0 0)
(-0.09013423411809769 0 0)
(-0.08593547515624737 0 0)
(-0.08039432982190635 0 0)
(-0.07344368792003485 0 0)
(-0.06509904176720543 0 0)
(-0.05542452848895619 0 0)
(-0.04448113288140837 0 0)
(-0.0322874604976118 0 0)
(-0.01882345947913462 0 0)
(-0.004073571394505911 0 0)
(0.01189086034142936 0 0)
(0.0288015468013555 0 0)
(0.04612897935934577 0 0)
(0.06283110215614704 0 0)
(0.07674642065164292 0 0)
(0.08538553015070781 0 0)
(0.08862641735680976 0 0)
(0.08915046532111771 0 0)
(0.08898551587656572 0 0)
(0.08867492275772278 0 0)
(0.08800665333034235 0 0)
(0.08689005855957463 0 0)
(0.08518970730660745 0 0)
(0.08268991880924285 0 0)
(0.07912112518929203 0 0)
(0.0742106903403663 0 0)
(0.06773733342210964 0 0)
(0.05957781399488093 0 0)
(0.04974401832640573 0 0)
(0.03840056275514154 0 0)
(0.02581305711871577 0 0)
(0.01214436824153832 0 0)
(-0.002693003265163691 0 0)
(-0.01920780269575226 0 0)
(-0.03635338504674099 0 0)
(-0.05703671193224218 0 0)
)
;

boundaryField
{
    inlet
    {
        type            zeroGradient;
    }
    outlet
    {
        type            velocityOutletNSCBCx;
        pInf            101325;
        gamma           1.4;
        etaAc           1;
        fieldInf        (-1 0 0);
        lInf            2.25;
        value           uniform (-0.06468882931274572 0 0);
    }
    frontAndBack
    {
        type            empty;
    }
}


// ************************************************************************* //
