/*--------------------------------*- C++ -*----------------------------------*\
| =========                 |                                                 |
| \\      /  F ield         | OpenFOAM: The Open Source CFD Toolbox           |
|  \\    /   O peration     | Version:  v2012                                 |
|   \\  /    A nd           | Website:  www.openfoam.com                      |
|    \\/     M anipulation  |                                                 |
\*---------------------------------------------------------------------------*/
FoamFile
{
    version     2.0;
    format      ascii;
    class       volVectorField;
    location    "0.0125";
    object      UMean;
}
// * * * * * * * * * * * * * * * * * * * * * * * * * * * * * * * * * * * * * //

dimensions      [0 1 -1 0 0 0 0];


internalField   nonuniform List<vector> 
1000
(
(0.001042166152738719 0 0)
(0.0009955041508965833 0 0)
(0.000995874088467377 0 0)
(0.0009672460685012653 0 0)
(0.0009360948567914996 0 0)
(0.0008868358655751773 0 0)
(0.0008361974749997265 0 0)
(0.0007760918987900862 0 0)
(0.0007152445278503274 0 0)
(0.0006490074008848714 0 0)
(0.0005811063097896066 0 0)
(0.0005119479733545015 0 0)
(0.0004430072395806837 0 0)
(0.000374975092975112 0 0)
(0.0003089299846528992 0 0)
(0.0002464110555552625 0 0)
(0.0001884747721763495 0 0)
(0.0001365213327231016 0 0)
(9.1318341316609e-05 0 0)
(5.386231824240068e-05 0 0)
(2.466820851564533e-05 0 0)
(4.324229778311571e-06 0 0)
(-6.770059978457182e-06 0 0)
(-8.443042598310278e-06 0 0)
(-5.547286963254278e-07 0 0)
(1.663577490268589e-05 0 0)
(4.29283209140765e-05 0 0)
(7.771476464920907e-05 0 0)
(0.0001205593652454396 0 0)
(0.0001708090803719316 0 0)
(0.0002280277419379358 0 0)
(0.0002910989482926472 0 0)
(0.000357917088051275 0 0)
(0.0004258170731471195 0 0)
(0.0004937561461995717 0 0)
(0.0005614359792661126 0 0)
(0.0006284749132088784 0 0)
(0.0006939954706119881 0 0)
(0.0007569194833513378 0 0)
(0.000815831101843948 0 0)
(0.0008694091933017905 0 0)
(0.0009163057405371571 0 0)
(0.000955602350659321 0 0)
(0.0009864599878651079 0 0)
(0.001008462118517238 0 0)
(0.001021201626450918 0 0)
(0.001024587277271439 0 0)
(0.001018509268340743 0 0)
(0.001003166419149151 0 0)
(0.0009787346794583364 0 0)
(0.0009456349746969862 0 0)
(0.0009041673969253901 0 0)
(0.0008547592607586066 0 0)
(0.0007979183854146013 0 0)
(0.0007351033795482865 0 0)
(0.0006688883530952969 0 0)
(0.000601887666225834 0 0)
(0.0005348542589191364 0 0)
(0.0004680440107793866 0 0)
(0.000401771929245176 0 0)
(0.0003367423349791374 0 0)
(0.0002738582788136352 0 0)
(0.0002143721072611247 0 0)
(0.0001595740359359873 0 0)
(0.0001108841820308668 0 0)
(6.945079183803434e-05 0 0)
(3.633194620638312e-05 0 0)
(1.214945021547174e-05 0 0)
(-2.607781966256e-06 0 0)
(-7.828341766240774e-06 0 0)
(-3.450668030210646e-06 0 0)
(1.033162738999453e-05 0 0)
(3.336411140202077e-05 0 0)
(6.532041097700059e-05 0 0)
(0.0001060138881579203 0 0)
(0.0001550680760081076 0 0)
(0.0002118501896740597 0 0)
(0.0002745644734847555 0 0)
(0.0003403327286800033 0 0)
(0.0004067160140700517 0 0)
(0.0004730994343425959 0 0)
(0.0005392553752016445 0 0)
(0.0006049587116915782 0 0)
(0.0006694858887640429 0 0)
(0.0007321359686162592 0 0)
(0.0007916762663666746 0 0)
(0.0008470058369378575 0 0)
(0.0008966491512812939 0 0)
(0.0009394990700859519 0 0)
(0.0009743050896907639 0 0)
(0.001000394916954556 0 0)
(0.001017065606068342 0 0)
(0.001024228703903521 0 0)
(0.00102168755722087 0 0)
(0.00100973861391863 0 0)
(0.0009884185578478374 0 0)
(0.0009581166150221655 0 0)
(0.0009188609159397126 0 0)
(0.0008710965319854285 0 0)
(0.0008153248939908384 0 0)
(0.000753492508087547 0 0)
(0.0006884110581879489 0 0)
(0.0006227244995615638 0 0)
(0.0005569576345238112 0 0)
(0.0004914118054454015 0 0)
(0.0004262485030826856 0 0)
(0.0003620658960562152 0 0)
(0.0002995274790193582 0 0)
(0.0002396796579675663 0 0)
(0.0001836122746079994 0 0)
(0.0001326746510454684 0 0)
(8.808019446690727e-05 0 0)
(5.11093909258757e-05 0 0)
(2.266897006349045e-05 0 0)
(3.576471988473114e-06 0 0)
(-5.839249853253889e-06 0 0)
(-5.324611562963783e-06 0 0)
(4.96225921144151e-06 0 0)
(2.495199643159754e-05 0 0)
(5.433379298176712e-05 0 0)
(9.300138104471195e-05 0 0)
(0.000140547102960809 0 0)
(0.000196222261178226 0 0)
(0.0002579279490071375 0 0)
(0.0003226045128692584 0 0)
(0.0003878282186882328 0 0)
(0.0004530850442875539 0 0)
(0.0005181227850549635 0 0)
(0.0005828383748002175 0 0)
(0.0006465662942874767 0 0)
(0.0007088241479192571 0 0)
(0.0007684954775149418 0 0)
(0.0008247179787537836 0 0)
(0.000876064636212665 0 0)
(0.0009215048812475036 0 0)
(0.00095963865398773 0 0)
(0.0009896362082054847 0 0)
(0.001010496342955 0 0)
(0.001021891224424895 0 0)
(0.001023379557884346 0 0)
(0.001015122608007291 0 0)
(0.0009970470010655828 0 0)
(0.0009695247490409057 0 0)
(0.0009325578682813452 0 0)
(0.0008866555136739088 0 0)
(0.0008323692357780571 0 0)
(0.0007718018834142546 0 0)
(0.000707829868633965 0 0)
(0.0006432077615633614 0 0)
(0.0005784674931769955 0 0)
(0.0005139303012745444 0 0)
(0.0004496573943315764 0 0)
(0.0003861983378910212 0 0)
(0.0003240349259650719 0 0)
(0.0002641123396347778 0 0)
(0.00020730892573386 0 0)
(0.0001549009650515784 0 0)
(0.0001079923437933723 0 0)
(6.793587448765432e-05 0 0)
(3.572914727342014e-05 0 0)
(1.244383119087787e-05 0 0)
(-1.355697621253347e-06 0 0)
(-5.109736629111454e-06 0 0)
(1.21881650790769e-06 0 0)
(1.775911690510395e-05 0 0)
(4.424263253941183e-05 0 0)
(8.062443711794355e-05 0 0)
(0.0001263803394316637 0 0)
(0.0001807046245530647 0 0)
(0.0002412729728088972 0 0)
(0.0003049625059116435 0 0)
(0.0003692108636850388 0 0)
(0.000433531699472068 0 0)
(0.0004976446882467498 0 0)
(0.0005615288845309176 0 0)
(0.0006245762583916434 0 0)
(0.0006864290366212845 0 0)
(0.0007460924583350825 0 0)
(0.0008028432574719694 0 0)
(0.0008553711561322136 0 0)
(0.0009027305098933886 0 0)
(0.0009435170192378124 0 0)
(0.0009768478906782628 0 0)
(0.001001541113511014 0 0)
(0.001017084406687395 0 0)
(0.001022755403622259 0 0)
(0.001018527901305486 0 0)
(0.0010041013103781 0 0)
(0.0009797755067344513 0 0)
(0.000945467058494962 0 0)
(0.0009017338447469565 0 0)
(0.0008491529104481089 0 0)
(0.0007899188527779891 0 0)
(0.0007269818711731393 0 0)
(0.000663270897565412 0 0)
(0.0005994122197337623 0 0)
(0.0005357404951905428 0 0)
(0.0004722463214763318 0 0)
(0.0004094376860976485 0 0)
(0.0003476670531672496 0 0)
(0.0002877917532768564 0 0)
(0.0002305332928336784 0 0)
(0.0001770788602725327 0 0)
(0.0001284136158861298 0 0)
(8.588642342068808e-05 0 0)
(5.049809358405139e-05 0 0)
(2.347580652091209e-05 0 0)
(5.532575999785504e-06 0 0)
(-2.494549049522825e-06 0 0)
(-3.541486434076753e-07 0 0)
(1.233986209002409e-05 0 0)
(3.545663342377848e-05 0 0)
(6.908157374594359e-05 0 0)
(0.0001126658170309604 0 0)
(0.0001653733289060118 0 0)
(0.0002247428554458823 0 0)
(0.0002874786392954755 0 0)
(0.0003508556253996107 0 0)
(0.0004143381219350212 0 0)
(0.0004776390776590707 0 0)
(0.0005407901449693652 0 0)
(0.0006032482713236796 0 0)
(0.0006647379811758147 0 0)
(0.0007243550860817297 0 0)
(0.0007814867202100745 0 0)
(0.0008349149665598573 0 0)
(0.0008837659035001478 0 0)
(0.0009266862199743535 0 0)
(0.0009627725078784149 0 0)
(0.0009907587962002392 0 0)
(0.001010026721879263 0 0)
(0.001019672484095818 0 0)
(0.001019479867865579 0 0)
(0.00100895203926888 0 0)
(0.0009881994079701782 0 0)
(0.0009571005243114708 0 0)
(0.0009160282844062539 0 0)
(0.0008655873603053951 0 0)
(0.0008080375621735112 0 0)
(0.0007463591119802471 0 0)
(0.0006835413087816909 0 0)
(0.0006204661079388115 0 0)
(0.0005574989775311837 0 0)
(0.0004945594073785471 0 0)
(0.0004321758730592397 0 0)
(0.0003706172678124895 0 0)
(0.000310648406772508 0 0)
(0.0002528863516858446 0 0)
(0.0001985544025556201 0 0)
(0.0001484870252053866 0 0)
(0.0001039264244454327 0 0)
(6.597760111331302e-05 0 0)
(3.585865063505963e-05 0 0)
(1.430730421999496e-05 0 0)
(2.216118635719413e-06 0 0)
(2.578846609461214e-07 0 0)
(8.921722414271082e-06 0 0)
(2.823580335998671e-05 0 0)
(5.856678238661015e-05 0 0)
(9.943178094619438e-05 0 0)
(0.0001500138062916482 0 0)
(0.0002078803054040742 0 0)
(0.0002699109248847485 0 0)
(0.0003328211585462143 0 0)
(0.0003961800511140357 0 0)
(0.0004595441570362446 0 0)
(0.0005229237686652711 0 0)
(0.000585748223911968 0 0)
(0.0006477670785222958 0 0)
(0.0007082869936896444 0 0)
(0.0007665130676847293 0 0)
(0.0008212967455392938 0 0)
(0.0008720340978934135 0 0)
(0.000917029973831609 0 0)
(0.0009556326027067476 0 0)
(0.0009865527551777885 0 0)
(0.00100902544776194 0 0)
(0.001022178652663418 0 0)
(0.001025397880250631 0 0)
(0.001018144343514681 0 0)
(0.001000378349376252 0 0)
(0.0009716959296429942 0 0)
(0.0009325853305064593 0 0)
(0.0008835784256288581 0 0)
(0.0008266107841431256 0 0)
(0.0007649447876727839 0 0)
(0.0007014746694627586 0 0)
(0.0006375309210443182 0 0)
(0.00057354967654538 0 0)
(0.0005096528994519373 0 0)
(0.0004461927135861168 0 0)
(0.0003834503922949482 0 0)
(0.0003221767371318325 0 0)
(0.0002628642432001793 0 0)
(0.0002065008870761448 0 0)
(0.000154054512914573 0 0)
(0.0001067529403254136 0 0)
(6.55317887419568e-05 0 0)
(3.178450282652246e-05 0 0)
(6.317414563099373e-06 0 0)
(-9.84969002559344e-06 0 0)
(-1.59555413931172e-05 0 0)
(-1.128363982887511e-05 0 0)
(4.434780334397394e-06 0 0)
(3.14734783363207e-05 0 0)
(6.969724153128367e-05 0 0)
(0.0001182552122503246 0 0)
(0.0001745914430202593 0 0)
(0.0002359398738650433 0 0)
(0.0002988211718456945 0 0)
(0.0003620763640757791 0 0)
(0.0004253942352690285 0 0)
(0.0004886582763698578 0 0)
(0.0005514220270731862 0 0)
(0.0006134665444577921 0 0)
(0.0006740860198272871 0 0)
(0.0007328561197212917 0 0)
(0.000788520260896523 0 0)
(0.000840457979341097 0 0)
(0.0008874990231514325 0 0)
(0.0009284851455687345 0 0)
(0.0009624243690371108 0 0)
(0.0009884323676577224 0 0)
(0.001005398893349843 0 0)
(0.001012828903097515 0 0)
(0.0010098490726624 0 0)
(0.0009963130574261244 0 0)
(0.000971713559615026 0 0)
(0.0009363714091675966 0 0)
(0.000890676909336174 0 0)
(0.0008364055837460933 0 0)
(0.0007763655358487553 0 0)
(0.0007140600714117222 0 0)
(0.0006509993984263199 0 0)
(0.0005879853804161662 0 0)
(0.0005247545780444773 0 0)
(0.0004621416478144107 0 0)
(0.000400018542426132 0 0)
(0.0003391053838993804 0 0)
(0.0002799959013169829 0 0)
(0.0002234531534120975 0 0)
(0.0001701858434692035 0 0)
(0.0001217412201772392 0 0)
(7.863176150884974e-05 0 0)
(4.247588289636288e-05 0 0)
(1.411626939610889e-05 0 0)
(-5.42623422044188e-06 0 0)
(-1.523796190587784e-05 0 0)
(-1.440088268202786e-05 0 0)
(-2.584654562701604e-06 0 0)
(2.079650228544771e-05 0 0)
(5.549187024952945e-05 0 0)
(0.0001011492936403535 0 0)
(0.0001555122052714915 0 0)
(0.0002155379851089861 0 0)
(0.000277896514042325 0 0)
(0.0003407075794657034 0 0)
(0.0004035424718990266 0 0)
(0.0004663753736102504 0 0)
(0.0005288634177131389 0 0)
(0.0005906407962516745 0 0)
(0.0006511597423101929 0 0)
(0.0007100246412259665 0 0)
(0.0007662137970921291 0 0)
(0.0008189560735706933 0 0)
(0.0008673114858265971 0 0)
(0.0009102050034422857 0 0)
(0.0009465036281080091 0 0)
(0.000975392108723954 0 0)
(0.0009956207816898706 0 0)
(0.001006791514505633 0 0)
(0.001007623620415876 0 0)
(0.0009979859364710898 0 0)
(0.0009773793385493776 0 0)
(0.0009456976220296361 0 0)
(0.0009033409736753114 0 0)
(0.0008517996347779651 0 0)
(0.0007934088944875771 0 0)
(0.0007320101655575457 0 0)
(0.0006696271582177712 0 0)
(0.0006072028820531589 0 0)
(0.0005445022063245468 0 0)
(0.0004824303834958207 0 0)
(0.0004206600688643529 0 0)
(0.0003599953890857125 0 0)
(0.0003007695512886402 0 0)
(0.0002440040879268711 0 0)
(0.0001900501546444453 0 0)
(0.0001402672735820304 0 0)
(9.559554453709737e-05 0 0)
(5.715156434494692e-05 0 0)
(2.60219712334727e-05 0 0)
(3.330732209301802e-06 0 0)
(-1.011162117526989e-05 0 0)
(-1.321901103260063e-05 0 0)
(-5.433318883440009e-06 0 0)
(1.391541159792712e-05 0 0)
(4.477075705805408e-05 0 0)
(8.698683309388649e-05 0 0)
(0.0001387798584892799 0 0)
(0.000197157416820613 0 0)
(0.0002586113193014633 0 0)
(0.0003208792991228634 0 0)
(0.0003831514114736919 0 0)
(0.0004453559545182568 0 0)
(0.0005074284703196424 0 0)
(0.0005688719935989361 0 0)
(0.0006291889682346868 0 0)
(0.0006879374752135078 0 0)
(0.0007444859022377452 0 0)
(0.0007978774259229228 0 0)
(0.0008471117445870727 0 0)
(0.0008916121417673722 0 0)
(0.0009298657552438523 0 0)
(0.0009612234902552447 0 0)
(0.0009844602732055612 0 0)
(0.0009988846059036315 0 0)
(0.001003350516804784 0 0)
(0.0009975434441671582 0 0)
(0.0009807883229789678 0 0)
(0.0009530077212236162 0 0)
(0.0009141000127483162 0 0)
(0.0008654508983178456 0 0)
(0.0008091269500916107 0 0)
(0.0007486512268541038 0 0)
(0.0006868967458499673 0 0)
(0.0006249622575670011 0 0)
(0.0005628176039719353 0 0)
(0.0005010623252742451 0 0)
(0.0004397060325165283 0 0)
(0.0003792097881209712 0 0)
(0.0003199172098378366 0 0)
(0.0002628057225704587 0 0)
(0.0002083216595175883 0 0)
(0.0001573867116780637 0 0)
(0.0001111952746002566 0 0)
(7.076009814717406e-05 0 0)
(3.708356126326059e-05 0 0)
(1.144755484151625e-05 0 0)
(-5.42816734650446e-06 0 0)
(-1.234942651731195e-05 0 0)
(-8.599689171838355e-06 0 0)
(6.564986307855357e-06 0 0)
(3.340396157532122e-05 0 0)
(7.174186687708112e-05 0 0)
(0.0001204861782267983 0 0)
(0.000176905144619639 0 0)
(0.0002371823927302454 0 0)
(0.000298794241550686 0 0)
(0.000360464820871465 0 0)
(0.0004220691396006588 0 0)
(0.0004835502638831851 0 0)
(0.0005446220644597849 0 0)
(0.000604667478906028 0 0)
(0.0006633269053583655 0 0)
(0.0007199288211487777 0 0)
(0.0007739157921124458 0 0)
(0.0008239539893435712 0 0)
(0.0008695841967993297 0 0)
(0.0009096693056011855 0 0)
(0.0009431455642509194 0 0)
(0.000969033471783412 0 0)
(0.0009864904407088919 0 0)
(0.000994466595777741 0 0)
(0.0009922466673667704 0 0)
(0.000979289475073665 0 0)
(0.0009553678390674608 0 0)
(0.0009201894645775658 0 0)
(0.0008746541178206102 0 0)
(0.0008206891280486763 0 0)
(0.0007614420014037751 0 0)
(0.0007002492208951601 0 0)
(0.0006387649085641632 0 0)
(0.0005772174753973434 0 0)
(0.0005155754883719917 0 0)
(0.0004546515117051655 0 0)
(0.0003943472812771358 0 0)
(0.000335082054502569 0 0)
(0.0002775703697944644 0 0)
(0.0002226254913746215 0 0)
(0.0001708047647492282 0 0)
(0.000123051555067947 0 0)
(8.088070770308897e-05 0 0)
(4.487861145121288e-05 0 0)
(1.642595142585744e-05 0 0)
(-3.54910127757149e-06 0 0)
(-1.414624737907755e-05 0 0)
(-1.44050007715336e-05 0 0)
(-3.373259680711499e-06 0 0)
(1.92181856691257e-05 0 0)
(5.359657392139074e-05 0 0)
(9.877931984008361e-05 0 0)
(0.0001527806297583218 0 0)
(0.0002116549198066689 0 0)
(0.0002724744579719378 0 0)
(0.000333493544129969 0 0)
(0.0003946213205068922 0 0)
(0.0004551717446619773 0 0)
(0.00051597919525596 0 0)
(0.0005756857652240434 0 0)
(0.0006341769565326403 0 0)
(0.0006907623062179229 0 0)
(0.0007450561011133693 0 0)
(0.0007958857437575127 0 0)
(0.0008423948034362981 0 0)
(0.0008839998661654083 0 0)
(0.0009194716119950281 0 0)
(0.0009476466539893914 0 0)
(0.0009679593404892547 0 0)
(0.0009790486882399426 0 0)
(0.0009803178070397769 0 0)
(0.000971097405259068 0 0)
(0.0009509693722293751 0 0)
(0.0009196787410758885 0 0)
(0.0008774889266601225 0 0)
(0.000826147507877416 0 0)
(0.0007685682249200554 0 0)
(0.0007079709946383682 0 0)
(0.0006469063433449289 0 0)
(0.0005858093394735746 0 0)
(0.0005244209817596179 0 0)
(0.0004638609218334067 0 0)
(0.0004037368389666474 0 0)
(0.0003444848951284288 0 0)
(0.0002867655480767599 0 0)
(0.0002311995249209636 0 0)
(0.0001787577192449492 0 0)
(0.0001296543513331382 0 0)
(8.578196123659814e-05 0 0)
(4.778594402339504e-05 0 0)
(1.663060128196865e-05 0 0)
(-6.340038320432554e-06 0 0)
(-2.027392446150926e-05 0 0)
(-2.43910835971406e-05 0 0)
(-1.749790545279731e-05 0 0)
(8.205607472689688e-07 0 0)
(3.100028322030962e-05 0 0)
(7.24083839667788e-05 0 0)
(0.0001234273956400747 0 0)
(0.0001807310138835966 0 0)
(0.0002404108060291266 0 0)
(0.0003008162325705864 0 0)
(0.0003612996750153904 0 0)
(0.0004212937289548461 0 0)
(0.0004814811406345305 0 0)
(0.0005407547098660413 0 0)
(0.0005990662341960074 0 0)
(0.0006555990429518367 0 0)
(0.0007099644819952468 0 0)
(0.000761478729177165 0 0)
(0.0008088331726152059 0 0)
(0.0008515703580986452 0 0)
(0.0008888768210995975 0 0)
(0.0009191221879885765 0 0)
(0.0009419197817139996 0 0)
(0.0009561474357926138 0 0)
(0.0009607357575735006 0 0)
(0.0009549972986213911 0 0)
(0.0009386404096815694 0 0)
(0.0009111330252153915 0 0)
(0.0008727111204381517 0 0)
(0.0008241127535594293 0 0)
(0.0007686501289254199 0 0)
(0.000708665333888822 0 0)
(0.0006481350614669103 0 0)
(0.0005873566320075068 0 0)
(0.0005266325645822209 0 0)
(0.0004658409515456528 0 0)
(0.0004060906508580868 0 0)
(0.0003469897224955807 0 0)
(0.0002891129931880054 0 0)
(0.0002330738777139863 0 0)
(0.0001799087986048653 0 0)
(0.0001299543215969866 0 0)
(8.420008603269323e-05 0 0)
(4.453258367729777e-05 0 0)
(1.098980746153029e-05 0 0)
(-1.495244349168594e-05 0 0)
(-3.193896103795325e-05 0 0)
(-3.983655857829837e-05 0 0)
(-3.697487286576108e-05 0 0)
(-2.283560222613808e-05 0 0)
(3.015426151802734e-06 0 0)
(4.046472611228908e-05 0 0)
(8.808736091352637e-05 0 0)
(0.0001432962514329674 0 0)
(0.0002018348792110417 0 0)
(0.0002614805150744583 0 0)
(0.0003212664936462173 0 0)
(0.0003809558608543892 0 0)
(0.000439883040207828 0 0)
(0.0004991288918727956 0 0)
(0.0005571220971825387 0 0)
(0.0006135089617615408 0 0)
(0.0006679593640841362 0 0)
(0.0007197287777008819 0 0)
(0.0007681594673797741 0 0)
(0.0008114903611105733 0 0)
(0.000850644101745044 0 0)
(0.0008828115920726809 0 0)
(0.0009077905696485605 0 0)
(0.0009248574793171003 0 0)
(0.0009324876320867255 0 0)
(0.000930197257404951 0 0)
(0.0009175373738346848 0 0)
(0.0008937690697172584 0 0)
(0.0008591128601660421 0 0)
(0.0008138113037376605 0 0)
(0.0007603725933138402 0 0)
(0.0007020384257819654 0 0)
(0.000641408118839171 0 0)
(0.000581077280067523 0 0)
(0.0005208996900739879 0 0)
(0.0004600174967160609 0 0)
(0.0004007887676918833 0 0)
(0.0003416179367237272 0 0)
(0.0002837255775381894 0 0)
(0.000227322670179902 0 0)
(0.0001733894241172168 0 0)
(0.0001227755404856736 0 0)
(7.540501021746323e-05 0 0)
(3.404846170517906e-05 0 0)
(-1.599750564303035e-06 0 0)
(-3.035795870176214e-05 0 0)
(-5.04798772962099e-05 0 0)
(-6.157329815758841e-05 0 0)
(-6.269774413348496e-05 0 0)
(-5.278567956480024e-05 0 0)
(-3.124926421153486e-05 0 0)
(1.897972694763906e-06 0 0)
(4.604718279688379e-05 0 0)
(9.834811726709094e-05 0 0)
(0.0001560239838691049 0 0)
(0.0002142709669389067 0 0)
(0.0002735772274150228 0 0)
(0.0003327094394538637 0 0)
(0.0003910349066668269 0 0)
(0.0004497508150792436 0 0)
(0.000507228865438535 0 0)
(0.0005635959834872903 0 0)
(0.0006180219790234507 0 0)
(0.0006699720417652189 0 0)
(0.0007190465156277296 0 0)
(0.0007633937551387387 0 0)
(0.0008035521327545979 0 0)
(0.00083780964071846 0 0)
(0.0008647168754691031 0 0)
(0.0008841752059541355 0 0)
(0.0008951402282387537 0 0)
(0.0008959888419973124 0 0)
(0.000886721699699404 0 0)
(0.0008667360863577826 0 0)
(0.0008357362128212753 0 0)
(0.0007941002424771628 0 0)
(0.0007430138652566167 0 0)
(0.0006863812021402195 0 0)
(0.0006263236910775019 0 0)
(0.000566040648416567 0 0)
(0.0005061668364798105 0 0)
(0.0004460425626591132 0 0)
(0.0003862232817498824 0 0)
(0.000327458745029413 0 0)
(0.0002696240106945733 0 0)
(0.0002129635295998379 0 0)
(0.0001584491169348086 0 0)
(0.0001069004946338722 0 0)
(5.877517875527696e-05 0 0)
(1.508984298796341e-05 0 0)
(-2.209073604202341e-05 0 0)
(-5.353541894536257e-05 0 0)
(-7.664949116504389e-05 0 0)
(-9.077711417064069e-05 0 0)
(-9.589177276672743e-05 0 0)
(-9.002660368424048e-05 0 0)
(-7.26979574451026e-05 0 0)
(-4.390646935731999e-05 0 0)
(-3.701903466704854e-06 0 0)
(4.568280239966532e-05 0 0)
(0.0001013785623956627 0 0)
(0.0001590995146943149 0 0)
(0.0002171807610990281 0 0)
(0.0002757569563557946 0 0)
(0.0003340755293826252 0 0)
(0.0003911777847330311 0 0)
(0.0004489792460083755 0 0)
(0.0005049890653465365 0 0)
(0.0005593376024805925 0 0)
(0.0006114488361539385 0 0)
(0.0006607702207264448 0 0)
(0.0007064761762617198 0 0)
(0.0007468958276438816 0 0)
(0.0007831012658146121 0 0)
(0.000812041279456351 0 0)
(0.0008337654619120198 0 0)
(0.0008474965634586608 0 0)
(0.0008514591881220294 0 0)
(0.0008456087233423545 0 0)
(0.000829275000999527 0 0)
(0.0008020176521548046 0 0)
(0.0007639289384808202 0 0)
(0.0007160047553336197 0 0)
(0.000660896127991743 0 0)
(0.0006020892750979469 0 0)
(0.0005418538523926371 0 0)
(0.0004819925266028654 0 0)
(0.0004225531320195185 0 0)
(0.0003622309191763735 0 0)
(0.0003041816698909296 0 0)
(0.0002459708321598282 0 0)
(0.000189279161279011 0 0)
(0.0001342843277504991 0 0)
(8.18239393442478e-05 0 0)
(3.304968368630299e-05 0 0)
(-1.259181156078166e-05 0 0)
(-5.158085747307851e-05 0 0)
(-8.492110736945157e-05 0 0)
(-0.0001110949995563126 0 0)
(-0.0001286087837016462 0 0)
(-0.0001366748697852766 0 0)
(-0.0001350166656407469 0 0)
(-0.000121989492529393 0 0)
(-9.750820115934316e-05 0 0)
(-6.156611556961897e-05 0 0)
(-1.536092984497986e-05 0 0)
(3.777390800323629e-05 0 0)
(9.479784336580466e-05 0 0)
(0.0001521592135909464 0 0)
(0.0002095105104883175 0 0)
(0.000267525103259003 0 0)
(0.0003241244279719724 0 0)
(0.0003812835221303608 0 0)
(0.0004368841442984273 0 0)
(0.0004913301805138543 0 0)
(0.0005434245614774563 0 0)
(0.0005929829370042253 0 0)
(0.0006394328293690633 0 0)
(0.0006808123902045689 0 0)
(0.000718261541215133 0 0)
(0.0007493129641004025 0 0)
(0.0007726774628330687 0 0)
(0.0007888582022866064 0 0)
(0.0007964769122804062 0 0)
(0.0007935116609629774 0 0)
(0.0007806756887099418 0 0)
(0.0007571456266440924 0 0)
(0.0007226834128332763 0 0)
(0.0006780973616488651 0 0)
(0.000625074402250478 0 0)
(0.0005675568588296217 0 0)
(0.000507834990370343 0 0)
(0.0004477176461482646 0 0)
(0.0003884962898148128 0 0)
(0.000329005163651461 0 0)
(0.000269876142442409 0 0)
(0.0002122609695126656 0 0)
(0.0001554578415128884 0 0)
(0.0001000523790839389 0 0)
(4.692258434223093e-05 0 0)
(-2.870523211225985e-06 0 0)
(-4.943764232917402e-05 0 0)
(-9.063275356088922e-05 0 0)
(-0.0001258220093240358 0 0)
(-0.0001548290214208823 0 0)
(-0.0001752946681924931 0 0)
(-0.0001864651559332579 0 0)
(-0.0001889542901420508 0 0)
(-0.0001800149762709909 0 0)
(-0.0001597538318141644 0 0)
(-0.0001281347499755936 0 0)
(-8.576702645624822e-05 0 0)
(-3.506319140203401e-05 0 0)
(2.024266082848502e-05 0 0)
(7.713560358333682e-05 0 0)
(0.0001336861922882108 0 0)
(0.0001907036554235493 0 0)
(0.0002475763095828925 0 0)
(0.0003028974196578365 0 0)
(0.0003591578109015132 0 0)
(0.0004131010160401772 0 0)
(0.0004652435701156318 0 0)
(0.0005149794932988391 0 0)
(0.0005617154132898104 0 0)
(0.0006045975985425234 0 0)
(0.0006421128227220609 0 0)
(0.000675128332715523 0 0)
(0.0007008769864980223 0 0)
(0.0007191198777172317 0 0)
(0.0007293155884174416 0 0)
(0.0007298528308314444 0 0)
(0.0007202102610058974 0 0)
(0.0007003689784141716 0 0)
(0.0006695747693503883 0 0)
(0.0006283464114468539 0 0)
(0.000578129497323998 0 0)
(0.0005217698014162332 0 0)
(0.0004628905076901879 0 0)
(0.0004032110990200947 0 0)
(0.0003433522687254364 0 0)
(0.0002846980914798317 0 0)
(0.0002248688727619327 0 0)
(0.0001679476065637379 0 0)
(0.0001106039025068609 0 0)
(5.516820317908273e-05 0 0)
(1.414812185664601e-06 0 0)
(-4.945297389134828e-05 0 0)
(-9.654397781687489e-05 0 0)
(-0.0001402136209785841 0 0)
(-0.0001771711165516057 0 0)
(-0.000207882619881495 0 0)
(-0.0002321230804221955 0 0)
(-0.0002465576647905802 0 0)
(-0.0002516491159477169 0 0)
(-0.0002473240309455856 0 0)
(-0.0002313451170807782 0 0)
(-0.0002040770081341219 0 0)
(-0.0001658262546811055 0 0)
(-0.0001181133826063038 0 0)
(-6.475103787279204e-05 0 0)
(-8.677155976999994e-06 0 0)
(4.759360866749859e-05 0 0)
(0.0001032324515762223 0 0)
(0.0001599454705330295 0 0)
(0.0002149902770121564 0 0)
(0.000270144111377667 0 0)
(0.0003241295426180224 0 0)
(0.000376360017631465 0 0)
(0.0004260952479458805 0 0)
(0.0004731215881297936 0 0)
(0.0005169186195246008 0 0)
(0.0005553179754936838 0 0)
(0.0005898269028234821 0 0)
(0.0006175317873523897 0 0)
(0.0006375183118674212 0 0)
(0.0006502306857484086 0 0)
(0.0006544261321738662 0 0)
(0.000647549386276047 0 0)
(0.0006311764415848689 0 0)
(0.0006041648805321791 0 0)
(0.0005664848658725733 0 0)
(0.0005191418146666485 0 0)
(0.0004647947540823236 0 0)
(0.0004064947812836608 0 0)
(0.0003473214556995316 0 0)
(0.0002875836629477389 0 0)
(0.0002283964917861506 0 0)
(0.000169824336597258 0 0)
(0.0001108607663931958 0 0)
(5.480064180083134e-05 0 0)
(-1.141283210491598e-06 0 0)
(-5.534372307065602e-05 0 0)
(-0.0001070576218892861 0 0)
(-0.0001552426019575075 0 0)
(-0.0001999135548513505 0 0)
(-0.0002391291030621416 0 0)
(-0.0002722027990971238 0 0)
(-0.000298450851829214 0 0)
(-0.0003168055553906509 0 0)
(-0.0003250714537234895 0 0)
(-0.0003245046935502667 0 0)
(-0.0003129195497486519 0 0)
(-0.0002897872879351763 0 0)
(-0.0002557827564795771 0 0)
(-0.0002117504011661174 0 0)
(-0.0001603407051866774 0 0)
(-0.0001059374810098633 0 0)
(-4.990326824319125e-05 0 0)
(5.542714226333799e-06 0 0)
(6.036689196678854e-05 0 0)
(0.0001163588869355251 0 0)
(0.0001692524882251108 0 0)
(0.0002245874644243825 0 0)
(0.0002759753029849648 0 0)
(0.0003259701475499526 0 0)
(0.0003731051220184821 0 0)
(0.000417205961919915 0 0)
(0.000457356234313851 0 0)
(0.000491839236917346 0 0)
(0.0005215521610410192 0 0)
(0.0005443542079658809 0 0)
(0.0005583462257153114 0 0)
(0.0005653209979766087 0 0)
(0.0005628632979823488 0 0)
(0.0005491480048346891 0 0)
(0.0005257369532467259 0 0)
(0.0004917094136872132 0 0)
(0.0004475550342406803 0 0)
(0.0003954759816410173 0 0)
(0.0003382495540304376 0 0)
(0.0002796128260022108 0 0)
(0.0002202563381922892 0 0)
(0.0001604807024538177 0 0)
(0.0001021895856974809 0 0)
(4.341021025570925e-05 0 0)
(-1.365971649385533e-05 0 0)
(-6.935589001319417e-05 0 0)
(-0.0001238093205763105 0 0)
(-0.0001762847517915333 0 0)
(-0.0002256461447198916 0 0)
(-0.0002709581992970189 0 0)
(-0.0003125701757965375 0 0)
(-0.0003474595340616558 0 0)
(-0.0003760306856160519 0 0)
(-0.0003975760498808095 0 0)
(-0.000409479047715904 0 0)
(-0.0004114712166256219 0 0)
(-0.0004046617863970858 0 0)
(-0.0003860006063093899 0 0)
(-0.0003560470882185769 0 0)
(-0.0003159219908347416 0 0)
(-0.0002675045009382898 0 0)
(-0.0002141204149016219 0 0)
(-0.0001597671389978538 0 0)
(-0.0001042736597756608 0 0)
(-4.963298853177703e-05 0 0)
(4.345728381552457e-06 0 0)
(5.937172166109457e-05 0 0)
(0.0001106295032890198 0 0)
(0.0001646822080294153 0 0)
(0.0002138618779020091 0 0)
(0.0002611212768502719 0 0)
(0.0003055051569146951 0 0)
(0.0003463393256551512 0 0)
(0.0003823629940225555 0 0)
(0.0004132398721214828 0 0)
(0.000437685701545933 0 0)
(0.0004550337902441875 0 0)
(0.0004629367941106236 0 0)
(0.0004637962110072077 0 0)
(0.0004541066132008537 0 0)
(0.0004336128513352188 0 0)
(0.0004033399448370137 0 0)
(0.0003626020111748209 0 0)
(0.0003129397237999068 0 0)
(0.0002576469352008602 0 0)
(0.0001988917653607079 0 0)
(0.0001403771881958541 0 0)
(8.134548311100026e-05 0 0)
(2.133816198411386e-05 0 0)
(-3.597231568330582e-05 0 0)
(-9.537143913803256e-05 0 0)
(-0.0001490566163669914 0 0)
(-0.0002050996764734134 0 0)
(-0.0002576789568995005 0 0)
(-0.0003079857479364881 0 0)
(-0.0003548766590137483 0 0)
(-0.0003968875177347576 0 0)
(-0.0004348611902710324 0 0)
(-0.0004656694852594782 0 0)
(-0.0004892355450108836 0 0)
(-0.0005057022594202884 0 0)
(-0.0005110466667963325 0 0)
(-0.0005065481739781261 0 0)
(-0.0004929743221817999 0 0)
(-0.0004675110727473152 0 0)
(-0.0004312014066223952 0 0)
(-0.0003860873376522264 0 0)
(-0.0003348980523695496 0 0)
(-0.0002810787667641343 0 0)
(-0.000227183966151519 0 0)
(-0.0001724300560668114 0 0)
(-0.0001184001611664937 0 0)
(-6.596879419190259e-05 0 0)
(-1.142762888189836e-05 0 0)
(3.770642425780209e-05 0 0)
(9.08510465718894e-05 0 0)
(0.0001364639687100084 0 0)
(0.00018120269096048 0 0)
(0.0002221413353256784 0 0)
(0.0002598570508484794 0 0)
(0.0002914652343976868 0 0)
(0.0003180316167412777 0 0)
(0.0003371491559154356 0 0)
(0.0003487676430793543 0 0)
(0.0003507187249257222 0 0)
(0.0003450371315071314 0 0)
(0.00032764088655197 0 0)
(0.000300530501524908 0 0)
(0.000263664194508752 0 0)
(0.000216882850678186 0 0)
(0.0001631968790160058 0 0)
(0.0001059456768181426 0 0)
(4.672864224232653e-05 0 0)
(-1.177805727871831e-05 0 0)
(-7.013174709370184e-05 0 0)
(-0.0001300303691376356 0 0)
(-0.0001867443669169702 0 0)
(-0.0002460402216977649 0 0)
(-0.0002961423877235577 0 0)
(-0.0003534688969700835 0 0)
(-0.0004036124385148413 0 0)
(-0.0004517682686239547 0 0)
(-0.0004939839532855828 0 0)
(-0.0005340408356143241 0 0)
(-0.0005668047496717322 0 0)
(-0.0005939962296175907 0 0)
(-0.0006122525650233352 0 0)
(-0.0006234012951886037 0 0)
(-0.0006206435225688099 0 0)
(-0.0006101411992218431 0 0)
(-0.0005893790370243296 0 0)
)
;

boundaryField
{
    inlet
    {
        type            calculated;
        value           uniform (0.001042166152738719 0 0);
    }
    outlet
    {
        type            calculated;
        value           uniform (-0.0005737875812131271 0 0);
    }
    frontAndBack
    {
        type            empty;
    }
}


// ************************************************************************* //
