/*--------------------------------*- C++ -*----------------------------------*\
| =========                 |                                                 |
| \\      /  F ield         | OpenFOAM: The Open Source CFD Toolbox           |
|  \\    /   O peration     | Version:  v2012                                 |
|   \\  /    A nd           | Website:  www.openfoam.com                      |
|    \\/     M anipulation  |                                                 |
\*---------------------------------------------------------------------------*/
FoamFile
{
    version     2.0;
    format      ascii;
    class       volVectorField;
    location    "0.016";
    object      U;
}
// * * * * * * * * * * * * * * * * * * * * * * * * * * * * * * * * * * * * * //

dimensions      [0 1 -1 0 0 0 0];


internalField   nonuniform List<vector> 
1000
(
(-0.4454167260849223 0 0)
(-1.220394102569727 0 0)
(-1.938354613810502 0 0)
(-1.74663905861892 0 0)
(-1.407148398544088 0 0)
(-0.01908375352557369 0 0)
(2.071830255234608 0 0)
(3.666236086384036 0 0)
(4.337561686289081 0 0)
(4.195239379664654 0 0)
(2.183139121097785 0 0)
(-0.7991807136269483 0 0)
(-3.431684755234958 0 0)
(-5.156097509844423 0 0)
(-5.36516920786825 0 0)
(-4.152306920300334 0 0)
(-2.557815510397061 0 0)
(0.4493928928424153 0 0)
(2.798195359161414 0 0)
(3.650682397755807 0 0)
(3.112440976516729 0 0)
(2.812348691332461 0 0)
(1.0588698805051 0 0)
(-0.4883193183518513 0 0)
(-0.7214603496117994 0 0)
(0.5987903558993917 0 0)
(0.7718042434580311 0 0)
(1.959077815034936 0 0)
(1.498608749922416 0 0)
(-0.1740210602770935 0 0)
(-2.176898661909708 0 0)
(-2.95055021702736 0 0)
(-3.69478519206358 0 0)
(-2.939416857624534 0 0)
(-0.7378846288804186 0 0)
(1.762500143906985 0 0)
(4.111733273349378 0 0)
(5.491678913574953 0 0)
(5.192273525529359 0 0)
(3.214240064155318 0 0)
(1.118264454341978 0 0)
(-2.717619367061764 0 0)
(-4.67358327343317 0 0)
(-4.788777726226748 0 0)
(-3.533018070775111 0 0)
(-1.995126046466459 0 0)
(0.2455133518671909 0 0)
(1.645031301373468 0 0)
(1.740793953888495 0 0)
(0.7212836106662918 0 0)
(0.3520328022304056 0 0)
(-0.4657174261488219 0 0)
(-0.5458307674955648 0 0)
(0.2888647379979423 0 0)
(1.666545728730211 0 0)
(2.636127860876104 0 0)
(2.697438725379371 0 0)
(1.983970786257401 0 0)
(-0.4120103022430833 0 0)
(-3.013752751342698 0 0)
(-4.522991065885915 0 0)
(-4.546437483289174 0 0)
(-3.337631812305807 0 0)
(-0.7615697146172415 0 0)
(2.122609510508752 0 0)
(3.465899772513451 0 0)
(3.23559164319031 0 0)
(3.073983904840187 0 0)
(1.156026700858841 0 0)
(-0.732680286139235 0 0)
(-1.281749088194938 0 0)
(0.04482693772402171 0 0)
(0.8457968113189913 0 0)
(2.330580057291289 0 0)
(2.587158775337371 0 0)
(1.256192476363135 0 0)
(-1.426421325613634 0 0)
(-2.778888825525403 0 0)
(-4.116088298043754 0 0)
(-3.896553872119552 0 0)
(-2.193693200500399 0 0)
(0.6883726061707092 0 0)
(3.266218183816637 0 0)
(5.381200504815403 0 0)
(5.751512361683031 0 0)
(4.340129552698989 0 0)
(2.327784179347124 0 0)
(-1.623596449440203 0 0)
(-4.051143859299165 0 0)
(-4.445685849189706 0 0)
(-3.424946344992203 0 0)
(-2.053823376792669 0 0)
(-0.1261270201832673 0 0)
(1.123321782253008 0 0)
(1.17510008280101 0 0)
(0.01758149466309064 0 0)
(-0.01800822157191226 0 0)
(-1.050783112441287 0 0)
(-0.9953578613222732 0 0)
(0.09250686473696931 0 0)
(1.849439522479576 0 0)
(2.951737072690928 0 0)
(3.648000094948405 0 0)
(2.983087894388678 0 0)
(0.6385572406704164 0 0)
(-2.283447690059282 0 0)
(-4.169552760206273 0 0)
(-4.693777034008098 0 0)
(-3.386075590513943 0 0)
(-1.205856246941775 0 0)
(2.086414138130616 0 0)
(3.980266782482791 0 0)
(4.148980341818032 0 0)
(3.091446814733251 0 0)
(1.060308490427913 0 0)
(-1.374410691589194 0 0)
(-2.44166177487164 0 0)
(-1.744557870135464 0 0)
(-0.02487304712608723 0 0)
(1.848041360007961 0 0)
(3.270579838984821 0 0)
(2.863885077263695 0 0)
(0.8462668294656024 0 0)
(-1.581524090612471 0 0)
(-3.306711405770176 0 0)
(-4.085757550386524 0 0)
(-3.08907238974618 0 0)
(-0.4196687281147017 0 0)
(2.287204659246025 0 0)
(4.847683381076834 0 0)
(5.796092799016575 0 0)
(4.790142724966681 0 0)
(2.498194124694418 0 0)
(-1.083273931762924 0 0)
(-3.666971673914774 0 0)
(-4.212667612516008 0 0)
(-2.932195005418403 0 0)
(-1.388849862603833 0 0)
(0.8317998227767467 0 0)
(1.835756190509245 0 0)
(1.49067582094244 0 0)
(-0.3124499232405066 0 0)
(-1.247288684325224 0 0)
(-2.790349908392897 0 0)
(-2.850472876921182 0 0)
(-1.47213850873452 0 0)
(1.492321349154984 0 0)
(3.48830628547914 0 0)
(5.249481776401678 0 0)
(5.204140428132073 0 0)
(3.377154071398585 0 0)
(0.4504427498266139 0 0)
(-2.976732372141465 0 0)
(-4.602133647975547 0 0)
(-4.211208797335764 0 0)
(-3.43426724037378 0 0)
(-1.363463078498915 0 0)
(0.8382013442497018 0 0)
(1.972350588832777 0 0)
(1.975631839893602 0 0)
(2.012058052635088 0 0)
(0.7655711479043976 0 0)
(-0.3349762152357286 0 0)
(-0.3130926382394151 0 0)
(1.157591090573555 0 0)
(1.577818821830101 0 0)
(3.003751596361795 0 0)
(2.902480946841999 0 0)
(1.33204851727372 0 0)
(-1.237908957968446 0 0)
(-2.521403014277765 0 0)
(-3.947839107128493 0 0)
(-3.686781162166205 0 0)
(-1.930097762832675 0 0)
(0.5249594844015519 0 0)
(3.051930506197621 0 0)
(5.024364691886711 0 0)
(5.279068268434983 0 0)
(3.83100238024264 0 0)
(2.40374868401558 0 0)
(-0.872499873140265 0 0)
(-2.893219733904839 0 0)
(-2.912658885298979 0 0)
(-2.655670053953394 0 0)
(-1.580622718991679 0 0)
(-0.691026159452139 0 0)
(-0.3806610583337339 0 0)
(-0.6584413963818283 0 0)
(-1.156376671221855 0 0)
(-1.138810190134117 0 0)
(-1.453824639869955 0 0)
(-0.7735081933689048 0 0)
(0.9611156212616219 0 0)
(3.493270349412168 0 0)
(4.770765921282559 0 0)
(5.891775799882908 0 0)
(5.166684393194677 0 0)
(2.801057007408994 0 0)
(-0.5622057747918039 0 0)
(-3.749747243850205 0 0)
(-5.380724907700969 0 0)
(-5.690590484383023 0 0)
(-4.6342284963538 0 0)
(-2.0623347940941 0 0)
(0.3188065154507379 0 0)
(2.025384321885543 0 0)
(3.104406016934733 0 0)
(2.533808102863332 0 0)
(1.676784161144841 0 0)
(1.344773072075414 0 0)
(2.085574124221264 0 0)
(2.119474289941105 0 0)
(3.095955615344412 0 0)
(2.243565749661073 0 0)
(-0.6411381029825569 0 0)
(-3.780455557632282 0 0)
(-4.719893614437652 0 0)
(-5.904015592461374 0 0)
(-5.83821082560129 0 0)
(-4.168018572737109 0 0)
(-0.494398196969546 0 0)
(4.609394257185306 0 0)
(7.962935242074015 0 0)
(10.39955822118571 0 0)
(10.63472846766184 0 0)
(7.667653216632803 0 0)
(1.00025795573879 0 0)
(-5.731403818125746 0 0)
(-9.786916255857157 0 0)
(-10.68903356666318 0 0)
(-8.805334950843569 0 0)
(-5.371236850767793 0 0)
(-0.9905382787785814 0 0)
(3.683168253836336 0 0)
(7.243092833907309 0 0)
(8.699489279007022 0 0)
(7.836645607831709 0 0)
(5.203102886134227 0 0)
(2.040751166293238 0 0)
(-1.625886969398035 0 0)
(-4.295313659594433 0 0)
(-4.492485915175182 0 0)
(-3.418493620143844 0 0)
(-1.766529954515673 0 0)
(-0.4358936774724422 0 0)
(0.8945357288831176 0 0)
(1.433797237322693 0 0)
(1.404236129716645 0 0)
(1.354856955840136 0 0)
(1.335029734639288 0 0)
(1.722346782806508 0 0)
(1.292276463936297 0 0)
(0.4640391521519782 0 0)
(-0.6031293926994853 0 0)
(-0.1334986812867274 0 0)
(-1.234637839771401 0 0)
(-1.842172422116406 0 0)
(-1.549015256412787 0 0)
(-0.2673449202711944 0 0)
(1.334642527673671 0 0)
(2.759843181276496 0 0)
(3.801869160514422 0 0)
(3.263605517533702 0 0)
(1.421927545694823 0 0)
(-1.074968872669455 0 0)
(-2.173175207207619 0 0)
(-3.039354567148168 0 0)
(-2.32241433254373 0 0)
(-0.1798288669463331 0 0)
(2.788571941434571 0 0)
(4.901425958636771 0 0)
(6.10716895795756 0 0)
(5.397318447823579 0 0)
(2.719556084372632 0 0)
(-1.097345949404166 0 0)
(-4.814359566355217 0 0)
(-6.608210207753333 0 0)
(-6.029351154396448 0 0)
(-3.888549831322902 0 0)
(-0.6292543669397171 0 0)
(2.93416096343134 0 0)
(5.121184723749207 0 0)
(5.625441146225828 0 0)
(4.538286039547233 0 0)
(2.228922776246147 0 0)
(0.1385364075315445 0 0)
(-1.171026099742448 0 0)
(-1.445963036516316 0 0)
(-0.6289920026002637 0 0)
(0.6275284065969435 0 0)
(1.364674846190972 0 0)
(0.870403145849202 0 0)
(-0.3377591721010785 0 0)
(-2.128477039831089 0 0)
(-3.410401924309983 0 0)
(-3.535102357066076 0 0)
(-1.710376783797086 0 0)
(0.7866697635021328 0 0)
(3.215284779472988 0 0)
(4.912486420090396 0 0)
(5.256705505945423 0 0)
(3.377013513674335 0 0)
(0.3881777680850523 0 0)
(-2.254843511399406 0 0)
(-3.791432485221197 0 0)
(-3.57685875077478 0 0)
(-1.50558048408083 0 0)
(0.743289889634607 0 0)
(2.8646999859418 0 0)
(3.896963086157544 0 0)
(3.596732068783452 0 0)
(1.88243834784013 0 0)
(-0.1725968287329154 0 0)
(-1.691989924769831 0 0)
(-1.950037531765577 0 0)
(-0.6124434462577484 0 0)
(1.459177324331846 0 0)
(3.528214779301639 0 0)
(4.550427895996864 0 0)
(3.918258650977955 0 0)
(0.9072012271095949 0 0)
(-2.56973692234016 0 0)
(-4.767735218053659 0 0)
(-5.057752987552344 0 0)
(-3.748121791518201 0 0)
(-0.6166456755700035 0 0)
(2.804574923364056 0 0)
(4.218817111567076 0 0)
(3.854610044901617 0 0)
(2.842201809133515 0 0)
(0.6297449384200271 0 0)
(-1.211053963205335 0 0)
(-1.539423164937321 0 0)
(-0.7166245608451582 0 0)
(0.2247054256862206 0 0)
(1.487126464990743 0 0)
(2.086769025772471 0 0)
(1.437373677909894 0 0)
(1.14540389525748 0 0)
(-0.4022680555895131 0 0)
(-1.844076540443869 0 0)
(-2.21124739475695 0 0)
(-1.06172585618724 0 0)
(-0.5565699534668138 0 0)
(1.200721896412963 0 0)
(2.653424105755641 0 0)
(2.999172373324141 0 0)
(2.1550640247012 0 0)
(1.996552441491654 0 0)
(0.2846496624581688 0 0)
(-1.665579126438843 0 0)
(-2.229150171373663 0 0)
(-1.158457139726988 0 0)
(-0.6839725100947658 0 0)
(0.4891535092793814 0 0)
(1.274292787601299 0 0)
(1.188825080427358 0 0)
(0.7016871678049845 0 0)
(0.9102994304517881 0 0)
(0.987735751052797 0 0)
(1.841312499468599 0 0)
(3.078452802102665 0 0)
(3.53429763166473 0 0)
(4.268426480964485 0 0)
(3.647721505027502 0 0)
(1.850449996869773 0 0)
(-0.5801294036917383 0 0)
(-3.589321263856922 0 0)
(-4.72870557789523 0 0)
(-3.97233731997949 0 0)
(-3.406721815621394 0 0)
(-1.591088819411808 0 0)
(0.9024719829740502 0 0)
(2.390000843662138 0 0)
(2.593490782058188 0 0)
(3.296553545757628 0 0)
(2.918822604768225 0 0)
(2.188432326725744 0 0)
(1.463865203167374 0 0)
(0.4838572105505867 0 0)
(0.3486706665721656 0 0)
(0.4368016151812267 0 0)
(0.6875379072919082 0 0)
(1.066435131897607 0 0)
(0.7374988629342381 0 0)
(-0.4985595412426496 0 0)
(-2.121788770581578 0 0)
(-2.700362007147406 0 0)
(-2.327493379802299 0 0)
(-1.754975093346558 0 0)
(0.3694017611983669 0 0)
(3.207872365803966 0 0)
(4.82738178523231 0 0)
(4.794674796922661 0 0)
(4.678647241915151 0 0)
(2.504530745995366 0 0)
(-1.898410628376616 0 0)
(-5.240449946263499 0 0)
(-5.6943527031745 0 0)
(-5.294646181118683 0 0)
(-4.34456176299252 0 0)
(-2.463933738836888 0 0)
(0.4870825620217076 0 0)
(2.899876811414698 0 0)
(4.815553637538105 0 0)
(6.691331868681885 0 0)
(8.406904677958051 0 0)
(8.544324287107068 0 0)
(5.729429448744524 0 0)
(0.2825272141289942 0 0)
(-2.822134237977666 0 0)
(-5.906334562974691 0 0)
(-6.877800061612359 0 0)
(-6.552809925001367 0 0)
(-3.235377438546705 0 0)
(0.6423105627731446 0 0)
(4.328480117368112 0 0)
(7.734930961791521 0 0)
(9.287745174679777 0 0)
(8.182241104675569 0 0)
(2.908847318274935 0 0)
(-2.38325355946306 0 0)
(-6.539915831481083 0 0)
(-8.454824257474588 0 0)
(-7.99667999748855 0 0)
(-3.879051299219976 0 0)
(1.232265335415248 0 0)
(6.051020955422213 0 0)
(9.643753852041327 0 0)
(10.61471589940717 0 0)
(7.229040618472404 0 0)
(-0.1412662591359226 0 0)
(-6.747931027996159 0 0)
(-11.2863354301709 0 0)
(-12.40595385671678 0 0)
(-10.20789650187629 0 0)
(-4.44414520982628 0 0)
(2.250990220314064 0 0)
(7.803362737893992 0 0)
(12.0101196844622 0 0)
(13.4999353660396 0 0)
(11.12786787738982 0 0)
(5.043889774729301 0 0)
(-1.822477897808592 0 0)
(-6.65542528622748 0 0)
(-7.922192992963647 0 0)
(-5.802986697287739 0 0)
(-1.612083960548361 0 0)
(2.785910840913593 0 0)
(6.331723176028559 0 0)
(7.992864982914091 0 0)
(7.231627259847031 0 0)
(4.576505607458132 0 0)
(0.617372423323699 0 0)
(-2.122650762589352 0 0)
(-3.099453114180475 0 0)
(-1.862312142542375 0 0)
(0.5019569857556941 0 0)
(3.42536216090058 0 0)
(4.890924957680079 0 0)
(4.147941709262225 0 0)
(0.6582554216608698 0 0)
(-2.376100306988039 0 0)
(-5.38440895190369 0 0)
(-6.458715615692443 0 0)
(-5.27763116910243 0 0)
(-1.415177553310177 0 0)
(2.780035386027393 0 0)
(6.182155306256891 0 0)
(7.417884074009341 0 0)
(6.048789049971722 0 0)
(2.997050706283082 0 0)
(-0.3660977038500167 0 0)
(-1.518025146608136 0 0)
(-0.1378668543374574 0 0)
(2.279991901396559 0 0)
(3.971680850329073 0 0)
(3.824101932737316 0 0)
(1.124441762813559 0 0)
(-2.937440609233167 0 0)
(-6.63092056324964 0 0)
(-7.697872897019727 0 0)
(-5.882596009458228 0 0)
(-1.600949669294865 0 0)
(3.936123162115722 0 0)
(8.592600000743138 0 0)
(11.14290403713558 0 0)
(10.19062775803944 0 0)
(5.174144071688059 0 0)
(-2.269736208962413 0 0)
(-8.679131929584244 0 0)
(-11.71450524739218 0 0)
(-10.26288891188468 0 0)
(-5.733243826093668 0 0)
(0.269185818778574 0 0)
(6.088472983391441 0 0)
(10.22337689066894 0 0)
(11.42162963223679 0 0)
(9.259454161500196 0 0)
(4.435131018402742 0 0)
(-1.00166391262631 0 0)
(-4.439510590053479 0 0)
(-4.602739196282809 0 0)
(-2.177261929963762 0 0)
(1.754352857940131 0 0)
(5.302900509309039 0 0)
(7.041569023812083 0 0)
(5.878279988991148 0 0)
(1.587688519500151 0 0)
(-3.862064413704649 0 0)
(-7.920187412433927 0 0)
(-8.898181130177489 0 0)
(-6.611578922075277 0 0)
(-1.893420724826447 0 0)
(3.727791569602079 0 0)
(8.5360033274234 0 0)
(11.03380457893463 0 0)
(10.2281132494368 0 0)
(5.479838542528178 0 0)
(-0.3369350323114712 0 0)
(-5.716066893142008 0 0)
(-8.478838995467902 0 0)
(-7.657834378794442 0 0)
(-4.400806553411141 0 0)
(-0.1843518935380382 0 0)
(3.754902802589209 0 0)
(6.53246265898207 0 0)
(7.597719573434678 0 0)
(6.752271813346867 0 0)
(4.28132373660712 0 0)
(1.830733657761866 0 0)
(-0.6145315856911214 0 0)
(-1.29586559266101 0 0)
(-0.9831538846411088 0 0)
(0.5197398222074571 0 0)
(0.2794397870308236 0 0)
(0.3680106131379052 0 0)
(0.9110446899150936 0 0)
(1.931264792765875 0 0)
(1.923079960254102 0 0)
(2.320007062744118 0 0)
(1.484909463064201 0 0)
(0.494871528280727 0 0)
(-0.02199364876885333 0 0)
(0.0831517643352903 0 0)
(-0.2036108186945808 0 0)
(-0.000421626624267972 0 0)
(0.8309953150721017 0 0)
(1.404009515171474 0 0)
(2.601024077920519 0 0)
(3.177243770070872 0 0)
(2.908710395831895 0 0)
(2.117908041248126 0 0)
(1.758555026776604 0 0)
(0.3142125528715974 0 0)
(-1.111034357160031 0 0)
(-1.246613407024533 0 0)
(-2.580838583614125 0 0)
(-2.778016196597807 0 0)
(-2.113564186514532 0 0)
(0.5288322182083515 0 0)
(2.842730063890498 0 0)
(5.300586927594713 0 0)
(5.748413532273003 0 0)
(4.163588458642494 0 0)
(1.379990263444432 0 0)
(-1.751766241726676 0 0)
(-2.950348247968976 0 0)
(-2.185693409857965 0 0)
(0.269615037570349 0 0)
(2.960570583830506 0 0)
(4.654284309135697 0 0)
(4.282404300670509 0 0)
(1.999695367318019 0 0)
(-1.30731480499619 0 0)
(-4.1587746841478 0 0)
(-4.799196110736956 0 0)
(-2.391193670433742 0 0)
(1.729251291298782 0 0)
(5.995124031759307 0 0)
(8.099859294954035 0 0)
(6.791313757035053 0 0)
(2.771977879306131 0 0)
(-2.463094029918568 0 0)
(-5.541709956859726 0 0)
(-5.276771270670544 0 0)
(-2.762202193765857 0 0)
(0.7700042323962863 0 0)
(4.365261417954684 0 0)
(5.566816575333676 0 0)
(4.423253691617244 0 0)
(2.382326066445549 0 0)
(-0.1508923444324678 0 0)
(-1.339337890306319 0 0)
(-0.2981773881696358 0 0)
(1.53733016894545 0 0)
(3.815735067898145 0 0)
(4.957671686284832 0 0)
(3.978751210809473 0 0)
(1.87093956315447 0 0)
(-1.093332715620705 0 0)
(-3.525276309492723 0 0)
(-3.813803128226388 0 0)
(-2.064569353456751 0 0)
(-1.806169899502743 0 0)
(0.4287680933549475 0 0)
(2.34550700021038 0 0)
(3.237477697460988 0 0)
(3.258859105442801 0 0)
(3.912549651469389 0 0)
(3.118279969309776 0 0)
(1.215807608492987 0 0)
(-0.09368611874806852 0 0)
(-1.275374917655619 0 0)
(-1.281283675506608 0 0)
(-0.09594767415807627 0 0)
(2.477173693771791 0 0)
(4.76799240874632 0 0)
(5.141855442175546 0 0)
(3.306356154677985 0 0)
(-0.6604606265377252 0 0)
(-4.666210284709758 0 0)
(-6.41682452191974 0 0)
(-4.861439191949569 0 0)
(-1.238503526290699 0 0)
(3.615110344365904 0 0)
(8.028744580170335 0 0)
(10.2196243276385 0 0)
(9.112135616083581 0 0)
(4.442373391654594 0 0)
(-1.940449469205946 0 0)
(-7.192851292645687 0 0)
(-8.616555514838776 0 0)
(-6.598124266028974 0 0)
(-2.014589310437834 0 0)
(2.852635298557694 0 0)
(6.849292560069111 0 0)
(8.603965145028013 0 0)
(7.590287244763007 0 0)
(4.358594275472456 0 0)
(0.5705648840863589 0 0)
(-1.134098149284941 0 0)
(-0.5083083093139676 0 0)
(1.899070516802968 0 0)
(4.397881496056262 0 0)
(5.546895396824221 0 0)
(3.330493019487895 0 0)
(-1.027461121999475 0 0)
(-4.874138633132165 0 0)
(-7.237313495712181 0 0)
(-7.02771608384841 0 0)
(-3.550098235044737 0 0)
(2.097041507473135 0 0)
(7.14276127118459 0 0)
(9.442968579411678 0 0)
(8.430967459305085 0 0)
(6.002171759213609 0 0)
(-0.09571691655146368 0 0)
(-5.02381208436612 0 0)
(-6.029248454585593 0 0)
(-3.957689846198293 0 0)
(-1.740119681424084 0 0)
(1.700181993620926 0 0)
(4.090867811537978 0 0)
(4.780499093488606 0 0)
(4.44416448163379 0 0)
(4.269653701008238 0 0)
(2.35167387464853 0 0)
(-0.04066780491611737 0 0)
(-0.3598677765279982 0 0)
(-0.1286238246073655 0 0)
(1.350752424888459 0 0)
(2.091240259369262 0 0)
(1.509259717103177 0 0)
(0.4152459908104306 0 0)
(1.077122596896822 0 0)
(0.6186750908903667 0 0)
(0.5581015965458352 0 0)
(0.8552123651626936 0 0)
(2.529823685347324 0 0)
(3.258147477504682 0 0)
(5.2711008718255 0 0)
(5.025736593314859 0 0)
(2.185830784950388 0 0)
(-1.606439766634115 0 0)
(-2.288672565469397 0 0)
(-3.997597486500718 0 0)
(-2.778210204658109 0 0)
(0.8510925007958563 0 0)
(5.067918157455019 0 0)
(8.388630910904693 0 0)
(10.56209025597956 0 0)
(9.059825354700099 0 0)
(3.1157464733886 0 0)
(-1.910623704540475 0 0)
(-7.38677134772302 0 0)
(-8.941554083230619 0 0)
(-7.108629316956786 0 0)
(-1.767468570923628 0 0)
(2.794763321001426 0 0)
(8.021016560457753 0 0)
(9.939445828903235 0 0)
(8.608264001608186 0 0)
(3.771132766598902 0 0)
(-0.1931412936999112 0 0)
(-4.790112076481586 0 0)
(-5.826434859962968 0 0)
(-3.642402364322905 0 0)
(1.664881135768373 0 0)
(5.73704443480971 0 0)
(9.46916786961576 0 0)
(9.74276291991389 0 0)
(5.853511308672483 0 0)
(-1.319339834446618 0 0)
(-7.071952848419066 0 0)
(-10.37734911082637 0 0)
(-9.766790147126363 0 0)
(-5.859642064426581 0 0)
(0.7938210912401403 0 0)
(7.244986088548322 0 0)
(12.87190200909567 0 0)
(15.80733674255163 0 0)
(14.58025669365997 0 0)
(8.45763416547344 0 0)
(-0.8749439299780737 0 0)
(-8.556179233160478 0 0)
(-12.58685838109144 0 0)
(-12.46631010623559 0 0)
(-9.006299749954229 0 0)
(-3.585516970737432 0 0)
(2.794898462579435 0 0)
(7.753062383917431 0 0)
(12.12505156084743 0 0)
(14.61797649021991 0 0)
(13.8850155000158 0 0)
(10.02896310482413 0 0)
(4.12819928634396 0 0)
(-1.92312396695884 0 0)
(-7.963772970620367 0 0)
(-9.829156057186452 0 0)
(-8.144887022673489 0 0)
(-3.944509757218927 0 0)
(-0.8347834865552406 0 0)
(3.870543530752212 0 0)
(6.460679349098999 0 0)
(6.987568908634765 0 0)
(6.051449451573361 0 0)
(4.702524935533607 0 0)
(5.952555456053854 0 0)
(4.580848775924786 0 0)
(2.315114721131217 0 0)
(-0.003715781729563221 0 0)
(-0.1880987232585194 0 0)
(-1.917919150811563 0 0)
(-1.769711411323867 0 0)
(-1.312359888102463 0 0)
(0.4455948566250675 0 0)
(2.671996072278012 0 0)
(6.440017942498772 0 0)
(8.168435715802687 0 0)
(8.307650187234215 0 0)
(6.312936098576851 0 0)
(3.856584386517998 0 0)
(-0.7169190483003748 0 0)
(-3.398266321204596 0 0)
(-4.519580775580946 0 0)
(-2.60266458534658 0 0)
(0.8042876666512165 0 0)
(5.801439723354274 0 0)
(9.028243613084888 0 0)
(10.68589609289048 0 0)
(9.151151486345181 0 0)
(5.502886238406343 0 0)
(0.971333326667786 0 0)
(-2.171909029015022 0 0)
(-3.136377147647329 0 0)
(-1.598939789256262 0 0)
(0.8501637407285214 0 0)
(2.699123510941796 0 0)
(3.170384274862424 0 0)
(2.657875578377361 0 0)
(2.482376075984237 0 0)
(3.612725162028934 0 0)
(6.357302515741853 0 0)
(9.296004329496954 0 0)
(11.12831913843841 0 0)
(9.895480147333398 0 0)
(4.943657344330369 0 0)
(-1.300824959053754 0 0)
(-7.293120618187334 0 0)
(-10.45098529078583 0 0)
(-9.902538535487945 0 0)
(-6.282310188228261 0 0)
(-0.8165958849103372 0 0)
(5.647949965754221 0 0)
(11.79104184471538 0 0)
(15.6059360969494 0 0)
(15.68902237218428 0 0)
(11.22279774385918 0 0)
(5.357638664524062 0 0)
(-2.723026410495511 0 0)
(-6.547303503758476 0 0)
(-6.119370977768308 0 0)
(-2.073054217760746 0 0)
(2.415329889093241 0 0)
(7.270853849530501 0 0)
(9.472294734752207 0 0)
(8.822482911461048 0 0)
(6.268539543299351 0 0)
(3.174699457354169 0 0)
(0.9450009373929532 0 0)
(-0.7587160629725276 0 0)
(-0.06255292774298583 0 0)
(3.06426117542342 0 0)
(6.975117585715981 0 0)
(10.11836994697971 0 0)
(11.65204035822962 0 0)
(9.235441006578775 0 0)
(3.145395979104604 0 0)
(-0.4437152229964205 0 0)
(-4.34106303412062 0 0)
(-5.054335918996901 0 0)
(-2.645607959540339 0 0)
(2.832290517322044 0 0)
(7.505972711643044 0 0)
(12.06176189937865 0 0)
(14.21562209491995 0 0)
(12.64745981440133 0 0)
(7.067835096153482 0 0)
(2.510934308242817 0 0)
(-2.502592997260419 0 0)
(-4.03824396822119 0 0)
(-2.671696221039512 0 0)
(1.172290289323305 0 0)
(4.150171409814952 0 0)
(7.997535228854542 0 0)
(9.58137065117705 0 0)
(8.564255616392241 0 0)
(5.977823175337605 0 0)
(5.328251237111688 0 0)
(3.448275199670647 0 0)
(2.741441602114137 0 0)
(2.92758975988481 0 0)
(2.418564170863008 0 0)
(2.578674675661972 0 0)
(1.701290076340324 0 0)
(0.901751032590528 0 0)
(0.7942650558534201 0 0)
(2.39704883093444 0 0)
(3.897149650475472 0 0)
(6.547492511405085 0 0)
(8.952850588341686 0 0)
(9.915908602705539 0 0)
(9.583027103894196 0 0)
(6.669214529120885 0 0)
(-0.4474857469759887 0 0)
(-5.130630970571486 0 0)
(-6.481340917405529 0 0)
(-4.570198403679036 0 0)
(0.3734671305860979 0 0)
(7.363751061250492 0 0)
(13.63372473133341 0 0)
(16.32855132384275 0 0)
(15.111698822305 0 0)
(10.35185275825415 0 0)
(3.173177984650704 0 0)
(-4.1086845121813 0 0)
(-7.142132982629148 0 0)
(-5.660677746286641 0 0)
(-1.143723688161857 0 0)
(4.928030876265584 0 0)
(10.83516204121667 0 0)
(15.14624639132523 0 0)
(15.01927291287641 0 0)
(11.56426454400541 0 0)
(5.314122354227174 0 0)
(-0.5089374210844098 0 0)
(-5.181073088455687 0 0)
(-5.058801146309377 0 0)
(-1.752507881560012 0 0)
(3.79094199394395 0 0)
(9.166611671241691 0 0)
(13.42792500002524 0 0)
(14.47952900517641 0 0)
(11.29237547611822 0 0)
(5.000688526530217 0 0)
(-1.374975816275568 0 0)
(-5.357288395473535 0 0)
(-5.692102759540335 0 0)
(-2.288602722175563 0 0)
(3.281192102165526 0 0)
(8.725350943959246 0 0)
(13.58290249620307 0 0)
(15.89856798542144 0 0)
(14.35803925848156 0 0)
(8.892183490064111 0 0)
(3.74652236255407 0 0)
(-2.098343763728469 0 0)
(-3.934540559838591 0 0)
(-2.626115882257112 0 0)
(1.648392443461968 0 0)
(5.223694348756683 0 0)
(9.477189954045844 0 0)
(11.36395356103285 0 0)
(10.95550805179248 0 0)
(9.324630294214383 0 0)
(7.608398233188646 0 0)
(6.438115590856746 0 0)
(4.868096052725393 0 0)
(4.115155125522258 0 0)
(4.799458983237653 0 0)
(6.231711599547558 0 0)
(6.721063763922131 0 0)
(7.027476077482846 0 0)
(6.069697691619662 0 0)
(5.486659996649208 0 0)
(5.548418997581077 0 0)
(7.80900544953649 0 0)
(8.948784305666271 0 0)
(9.858995751286438 0 0)
(9.788166505731677 0 0)
(9.505836881962349 0 0)
(8.185599159714435 0 0)
(7.828893243042851 0 0)
(7.569251414057219 0 0)
(7.819203679533975 0 0)
(8.00666846635818 0 0)
(7.267823513305304 0 0)
(5.903833875516014 0 0)
(3.521735610766811 0 0)
(2.016264633646643 0 0)
(2.846391370816022 0 0)
(5.159961894788028 0 0)
(8.668987302162718 0 0)
(12.11359074423122 0 0)
(14.30332106773544 0 0)
(14.13322690102173 0 0)
(10.98627229443237 0 0)
(6.199234735392928 0 0)
(1.922618074269318 0 0)
(0.6169621573189967 0 0)
(2.067917660458507 0 0)
(5.503179643373951 0 0)
(9.572303995246148 0 0)
(12.83542503318459 0 0)
(13.24551053561786 0 0)
(11.024007983658 0 0)
(7.378673827031456 0 0)
(3.727652358335262 0 0)
(2.504433493249973 0 0)
(3.701099931883845 0 0)
(6.771080234519287 0 0)
(10.09284105993582 0 0)
(12.39476150074771 0 0)
(12.15998426788877 0 0)
(9.485946503298019 0 0)
(5.570428082846221 0 0)
(1.057894672003359 0 0)
(-0.04042560631225744 0 0)
(1.31438088259896 0 0)
(4.804411597129454 0 0)
(9.231868590230423 0 0)
(14.10454295112675 0 0)
(16.0244202702258 0 0)
(15.1651753105268 0 0)
(11.59672146480533 0 0)
(7.033349021469827 0 0)
(1.125689966403632 0 0)
(-0.9336341075807538 0 0)
(0.03239302331608677 0 0)
(3.39369897868699 0 0)
(7.854872169692087 0 0)
(13.25269042050381 0 0)
(17.24841610799495 0 0)
(17.28096727948871 0 0)
(14.72864905862847 0 0)
(9.757366194675326 0 0)
(3.477937408624801 0 0)
(-1.369924213634431 0 0)
(-1.767786545993354 0 0)
(0.7482010116431074 0 0)
(5.023704136667472 0 0)
(10.63006185625196 0 0)
(15.5250632163401 0 0)
(17.97548355158626 0 0)
(17.85724637374133 0 0)
(14.4268119564205 0 0)
(8.492657824087777 0 0)
(4.05072940096005 0 0)
(1.471742618084985 0 0)
(1.621318098028503 0 0)
(4.629816737220134 0 0)
(9.223936225603923 0 0)
(12.76231213923945 0 0)
(15.12924679242549 0 0)
(14.7577661296514 0 0)
(11.40593046632232 0 0)
(6.501132782813777 0 0)
(3.764448082905636 0 0)
(3.157555188591312 0 0)
)
;

boundaryField
{
    inlet
    {
        type            zeroGradient;
    }
    outlet
    {
        type            pressureInletOutletVelocity;
        value           uniform (3.157555188591312 0 0);
    }
    frontAndBack
    {
        type            empty;
    }
}


// ************************************************************************* //
