/*--------------------------------*- C++ -*----------------------------------*\
| =========                 |                                                 |
| \\      /  F ield         | OpenFOAM: The Open Source CFD Toolbox           |
|  \\    /   O peration     | Version:  v2012                                 |
|   \\  /    A nd           | Website:  www.openfoam.com                      |
|    \\/     M anipulation  |                                                 |
\*---------------------------------------------------------------------------*/
FoamFile
{
    version     2.0;
    format      ascii;
    class       volScalarField;
    location    "0.011";
    object      p;
}
// * * * * * * * * * * * * * * * * * * * * * * * * * * * * * * * * * * * * * //

dimensions      [1 -1 -2 0 0 0 0];


internalField   nonuniform List<scalar> 
1000
(
101310.946600702
101313.5908016729
101306.8432524894
101301.5341408298
101295.6887668592
101290.4494424794
101285.9443828537
101282.0919505926
101278.7859385381
101276.5590030021
101275.92481141
101275.9451766748
101276.3227668975
101277.3494636901
101279.3320637032
101282.3363029743
101286.2518772203
101290.9048638722
101296.1485299066
101301.8796807254
101308.0140965751
101314.4615443885
101321.1154435202
101327.8535903135
101334.5434068802
101341.0504804531
101347.255197278
101353.0817531779
101358.5230568589
101363.6008149777
101368.1658360186
101371.5642227866
101373.0209229313
101373.1828641011
101373.1269921331
101372.8556997855
101372.1163759683
101370.6603629368
101368.2833889337
101364.8912815717
101360.5254789197
101355.3390897159
101349.5348782028
101343.3032301603
101336.7924607413
101330.1152733177
101323.3715917216
101316.6655306571
101310.1043758306
101303.7775473209
101297.7275738368
101291.9514147247
101286.5010445063
101281.7483130732
101278.5845601262
101277.5052405757
101277.4312144427
101277.4775628659
101277.7327588748
101278.3744581071
101279.622897588
101281.6720310766
101284.6580132716
101288.6233437366
101293.5049216307
101299.1493968483
101305.3523352517
101311.9052368978
101318.6299059101
101325.388996987
101332.0800861566
101338.6312702884
101345.0060355704
101351.2024437991
101357.2155471043
101362.919098199
101367.8244459628
101370.9818884275
101372.0175608006
101372.092126694
101372.0378541261
101371.8324001308
101371.287693184
101370.227096864
101368.4652224182
101365.8505027413
101362.2924238627
101357.785223557
101352.4139339285
101346.339904015
101339.7707819941
101332.9237245812
101325.9903766535
101319.1118948924
101312.3699711285
101305.7930258577
101299.3753915027
101293.1286452217
101287.2251770926
101282.2666434359
101279.2675272037
101278.3951335652
101278.3507374563
101278.3878704484
101278.5948327637
101279.0994901514
101280.0772321825
101281.6940423359
101284.0956610907
101287.3820233593
101291.587453001
101296.6675385905
101302.4999823112
101308.9031454645
101315.6677620829
101322.5915858409
101329.5094185422
101336.3152471241
101342.9700046463
101349.4812546069
101355.8365350391
101361.859977825
101366.9717232519
101370.1756302555
101371.2005328592
101371.278743838
101371.2364466071
101371.078654331
101370.6523632512
101369.813731409
101368.4026870188
101366.2724812141
101363.3069547488
101359.4413535022
101354.6774924707
101349.0900253199
101342.8215491367
101336.0641166517
101329.0269953478
101321.898376643
101314.815084108
101307.8516675845
101301.0362973139
101294.4134883451
101288.2032005178
101283.0637471986
101280.0137015602
101279.1354667063
101279.0858214194
101279.1132279553
101279.2772488655
101279.6846719588
101280.4829856985
101281.8165731735
101283.8223726396
101286.6118706967
101290.2550463412
101294.7650863894
101300.0895730913
101306.1130035568
101312.6711805838
101319.5746483164
101326.6386357971
101333.7149406052
101340.7130821145
101347.5913379833
101354.2970158105
101360.6254951162
101365.9816164216
101369.3670658151
101370.4935745134
101370.5938660251
101370.5633178287
101370.4450765191
101370.1086197036
101369.4309888546
101368.2707166222
101366.4917124597
101363.9744254476
101360.6316812137
101356.4225862129
101351.3631399569
101345.5312352222
101339.0617775814
101332.1282584957
101324.9136322703
101317.5802162293
101310.249740918
101303.0066867174
101295.9528292129
101289.3641388645
101283.9462329422
101280.7312731292
101279.7792088822
101279.7140330202
101279.7345886176
101279.8653608099
101280.1974658895
101280.859081824
101281.9785739829
101283.6831309496
101286.0848647563
101289.2683249285
101293.2771538889
101298.1038760321
101303.6864707485
101309.9127956337
101316.632718504
101323.6790009318
101330.8952154447
101338.1594756296
101345.3842676526
101352.468970485
101359.1706212296
101364.8731873956
101368.557392955
101369.8613224691
101370.0004446792
101369.9788368389
101369.8896210823
101369.6211373071
101369.0667802374
101368.1003508334
101366.5961405471
101364.4367134582
101361.5255355768
101357.7985707567
101353.2347880233
101347.8641576717
101341.7692737858
101335.0765771971
101327.9380080868
101320.5088730953
101312.9292807972
101305.321969718
101297.8381438735
101290.8063087982
101284.9831726728
101281.4602265911
101280.3605642543
101280.2694194166
101280.2827866733
101280.385254632
101280.6561069424
101281.2095519837
101282.1603022345
101283.6253669183
101285.7132009237
101288.5141083344
101292.0889657861
101296.4594681475
101301.6025507226
101307.4497694162
101313.8923574545
101320.7943409502
101328.0134675094
101335.4211144158
101342.9045978939
101350.3296457737
101357.4254828122
101363.5618291026
101367.6776763784
101369.2609918657
101369.4665237631
101369.4528733305
101369.3882732769
101369.1750993253
101368.7197398748
101367.9082895587
101366.6253458724
101364.7586337152
101362.2088723407
101358.8991853147
101354.7846729868
101349.8610122003
101344.1688771879
101337.7909536083
101330.8417569731
101323.4533735719
101315.7615126001
101307.9033221878
101300.0581109361
101292.5856658093
101286.2717914892
101282.2831299722
101280.9155195391
101280.7711881645
101280.7791359567
101280.8581511839
101281.0778723953
101281.5410158157
101282.3519062889
101283.6190886463
101285.4463492964
101287.9250780904
101291.12516565
101295.0867580602
101299.8143836225
101305.2737869678
101311.3926603857
101318.0681944651
101325.1816512433
101332.6129469562
101340.2424706692
101347.9212810507
101355.3718171972
101361.9756559695
101366.6435668127
101368.646309927
101368.9733163425
101368.9681976433
101368.9250129523
101368.7582916391
101368.38617131
101367.7040188746
101366.6052087349
101364.9832723006
101362.7396093313
101359.7909132417
101356.0773844344
101351.5707859627
101346.2798225874
101340.2505276728
101333.5617291151
101326.3170801876
101318.6360502114
101310.6534158226
101302.5550886153
101294.7015507553
101287.8651283209
101283.2706454277
101281.4870699062
101281.2425466653
101281.2439823177
101281.3018196203
101281.4764307706
101281.8613740433
101282.5526302182
101283.6514213612
101285.2566552522
101287.4587852401
101290.3323744235
101293.9292943389
101298.2732193996
101303.3554236281
101309.1332479573
101315.5340286986
101322.4645302515
101329.8204559089
101337.4870913542
101345.3161555042
101353.0429713511
101360.0913472005
101365.3863264525
101367.9620640052
101368.4990616804
101368.5121101829
101368.4854249
101368.3584263829
101368.0577909804
101367.4867353572
101366.5457806748
101365.133754798
101363.1540647048
101360.5205369064
101357.1643112956
101353.0408576877
101348.1353133176
101342.4647487423
101336.0773816608
101329.0490579103
101321.478171261
101313.4868802125
101305.2518624089
101297.1096717438
101289.7778081515
101284.4883394283
101282.1244034177
101281.6981333689
101281.6903547793
101281.7283453773
101281.8627687227
101282.1780571723
101282.7637191571
101283.7152376436
101285.1270361583
101287.0876420092
101289.6737298418
101292.9445874128
101296.9370854848
101301.6611740478
101307.0973738183
101313.1984305234
101319.8947831208
101327.1000561663
101334.7109815441
101342.5900794184
101350.4987517114
101357.9255330069
101363.8601170421
101367.1436646156
101368.0196387796
101368.0742589104
101368.0590739903
101367.9662868781
101367.7284928467
101367.2549964792
101366.4523123082
101365.2237329064
101363.4751250006
101361.1194970466
101358.0827681915
101354.309800903
101349.7691087104
101344.4556409246
101338.3922445208
101331.6294829554
101324.2435402584
101316.3383554757
101308.0714841587
101299.7423756616
101291.9845253495
101285.9767150519
101282.8750442043
101282.148746904
101282.1179144488
101282.1578816603
101282.2691504281
101282.5306545996
101283.0210530028
101283.8290203042
101285.0457606522
101286.7614769764
101289.0603282528
101292.0149258425
101295.6798162013
101300.084492596
101305.2285350626
101311.0810500188
101317.5830252738
101324.6514600432
101332.182296621
101340.0381497567
101348.0137306194
101355.6356436621
101362.028421895
101365.9326549478
101367.1341643674
101367.2512136084
101367.1777584255
101367.0228238538
101366.8591941989
101366.6074696977
101366.1621564466
101365.3994408318
101364.1948827318
101362.4288458602
101359.9917977612
101356.7906113468
101352.7519591941
101347.8269092103
101341.9995823999
101335.2943612479
101327.7739304346
101319.5262798715
101310.697647395
101301.5741919878
101292.6957396075
101285.1954848442
101280.5359516697
101278.3185086485
101276.5828069914
101275.321505832
101274.3115692202
101273.4484736056
101272.7578370656
101272.422169854
101272.5485622565
101273.1766130125
101274.5235653017
101276.7475459443
101279.9125872087
101284.0326787454
101289.11353804
101295.1490210621
101302.0942312513
101309.8656522227
101318.3758083534
101327.5043542071
101337.0069242128
101346.4688019308
101355.0385591087
101361.3209229427
101365.2571009151
101368.6046925388
101371.1875616961
101373.2850645601
101375.0997386386
101376.6722608977
101377.9259198744
101378.7466822891
101378.8840634169
101378.2075753816
101376.7140391297
101374.1831040705
101370.4777256281
101365.5252820591
101359.3368712858
101351.9926717407
101343.6079624692
101334.2939382714
101324.2456113981
101313.8571905878
101303.7113363416
101294.8244419054
101288.3447879844
101284.0605230688
101280.5863683486
101278.0767464252
101276.2915918611
101274.980248542
101274.0126328321
101273.3454013605
101273.1587628375
101273.5615666618
101274.5168296609
101276.181971317
101278.6901195698
101282.1694155348
101286.6905817827
101292.2479812631
101298.7841631066
101306.2160492411
101314.4468389603
101323.346665121
101332.6312220944
101341.8233365585
101350.4067532533
101357.545588467
101362.3813015042
101366.1010670558
101369.203711399
101371.6713225868
101373.6432153183
101375.2106291384
101376.4015103575
101377.2425242182
101377.5102624857
101377.0678391785
101375.9461045396
101373.9165280647
101370.7803713893
101366.4041229191
101360.7593851737
101353.8874414089
101345.8715789622
101336.8398845146
101327.0129864971
101316.790800796
101306.6921039563
101297.3944315605
101289.9663196167
101284.8791152196
101280.9956632346
101277.9481393904
101275.7718222217
101274.2791871751
101273.3054104214
101272.717940883
101272.5831540459
101272.9511509306
101273.7911164796
101275.2369308637
101277.4049119329
101280.4311251817
101284.4381731644
101289.4966923679
101295.6011083382
101302.6758398005
101310.6006393972
101319.2258502921
101328.3118410781
101337.4261940392
101346.0556003416
101353.6938823002
101359.5663875951
101363.5261508773
101367.0179536031
101369.821569078
101372.0406065771
101373.7676396053
101375.0497380862
101375.9229825479
101376.2689222244
101375.9850900687
101375.0727033953
101373.3769066372
101370.7131697879
101366.9188874925
101361.8824381471
101355.5563159269
101347.9879406859
101339.3271533773
101329.7893315808
101319.7132264672
101309.597804856
101300.0117201035
101291.799401576
101285.743034633
101281.4707171061
101277.967929233
101275.4030915519
101273.6477179291
101272.5182820524
101271.8625136127
101271.7054737277
101272.0530185966
101272.8365515232
101274.146654101
101276.0717197615
101278.7483976032
101282.3242742539
101286.9039468102
101292.5223474765
101299.1509122286
101306.700758475
101315.0202228145
101323.8865006126
101332.9270306989
101341.6472317373
101349.6199734891
101356.2268966667
101360.8357958945
101364.5141359923
101367.628717695
101370.1225663605
101372.0654467341
101373.5062161945
101374.4709454017
101374.9202415688
101374.7972825388
101374.0964594759
101372.7089552108
101370.436669748
101367.0993164459
101362.5685556078
101356.786292193
101349.7646635728
101341.5883898778
101332.4183439828
101322.5461232063
101312.4426930911
101302.6277119033
101293.7767214332
101286.8308127089
101281.9417251493
101278.0795007768
101275.0790907366
101272.9846130055
101271.6374327504
101270.8514174054
101270.6239248666
101270.928114334
101271.6437281297
101272.8457957316
101274.6015827056
101277.0211997004
101280.23753478
101284.3738351415
101289.5150083504
101295.6810402374
101302.8109592358
101310.7699421153
101319.3666900312
101328.3013124142
101337.1082710546
101345.3144815657
101352.4727308199
101357.9568494491
101361.789036569
101365.1942189895
101367.9406652474
101370.1054849441
101371.7434014262
101372.8637632295
101373.4817876809
101373.54870501
101373.0388178466
101371.9005914112
101369.933996586
101366.9924717508
101362.9597041198
101357.740854143
101351.271390526
101343.575130549
101334.803589174
101325.2136465891
101315.1979701068
101305.2507640875
101295.9434011109
101288.1576262966
101282.4271192484
101278.2093803282
101274.7588374472
101272.3165323423
101270.7135859261
101269.7254176834
101269.3614397432
101269.5946677144
101270.2480059091
101271.3704078492
101272.9942771711
101275.1983878225
101278.1091619869
101281.8657566884
101286.5723252573
101292.269800817
101298.9377584122
101306.4937980553
101314.7821985647
101323.5500492646
101332.3837311798
101340.8008745936
101348.4036545029
101354.6047144115
101358.9474529813
101362.5276528593
101365.5468494878
101367.9548805541
101369.7974129587
101371.099501367
101371.8951032019
101372.1379183232
101371.8230050617
101370.9520788673
101369.3311502219
101366.7931197298
101363.2042761494
101358.4542409643
101352.4733150885
101345.2744387982
101336.9684132049
101327.7365851937
101317.8890918203
101307.8960790213
101298.2682884722
101289.7557583202
101283.1774707101
101278.4150816378
101274.5738644581
101271.710583967
101269.7769044077
101268.5561857935
101268.0393079741
101268.1713513605
101268.7449423819
101269.779600934
101271.2867334308
101273.3234819265
101275.9939644157
101279.4235128249
101283.7230301302
101288.9679903264
101295.1833356668
101302.3211974031
101310.2519273854
101318.7748787848
101327.5586837038
101336.1317227134
101344.0652087209
101350.8746445468
101356.019224952
101359.7285233183
101363.0148126457
101365.6265616373
101367.6504456299
101369.1419659541
101370.1196859302
101370.5519298206
101370.4617945682
101369.8510017821
101368.5442394201
101366.3601572076
101363.1725352192
101358.8855024515
101353.4245924296
101346.7526364692
101338.9070472374
101330.0304676268
101320.4009914411
101310.4482334548
101300.6330375805
101291.5521582784
101284.1295346698
101278.6565514064
101274.4456747398
101271.127311763
101268.8172935964
101267.3358270414
101266.6279287807
101266.6014164455
101267.0844005425
101268.0447233693
101269.4639292902
101271.3682434175
101273.8308289426
101276.9666441541
101280.9034604736
101285.7402827333
101291.5161961929
101298.2090897707
101305.7402166059
101313.9632509529
101322.6137305621
101331.2566045011
101339.4401282373
101346.7622463971
101352.6247187368
101356.7800434993
101360.2547422816
101363.112796058
101365.3367070625
101367.0023844039
101368.1279702845
101368.7181526895
101368.8200033631
101368.4437123061
101367.4621213575
101365.6735025786
101362.9445124448
101359.1580920037
101354.2017581777
101348.0019204997
101340.5807519558
101332.0831974757
101322.7394227328
101312.8912892063
101302.9664880094
101293.4892956823
101285.3225523942
101279.0655369092
101274.3851770022
101270.5916736563
101267.8632433889
101266.1172659819
101265.1522624735
101264.9083789347
101265.3061235567
101266.1682019366
101267.5023503897
101269.2970495029
101271.5988718599
101274.5076864085
101278.1397404855
101282.5937752436
101287.9343644431
101294.185912951
101301.3104997629
101309.1864871369
101317.608468233
101326.2254912363
101334.585445109
101342.2998844876
101348.8213814165
101353.6739741613
101357.3374985735
101360.4540107657
101362.8560347415
101364.6530455606
101365.9085831751
101366.6391620085
101366.8922671609
101366.7295854708
101366.0639173071
101364.6694951797
101362.3863701503
101359.0825613413
101354.631702414
101348.9449506871
101342.0137526595
101333.9297097611
101324.8614984606
101315.1152793029
101305.1368966765
101295.3863949688
101286.5742748683
101279.5201548623
101274.220812325
101270.0212737815
101266.8639638153
101264.7699595155
101263.4899396711
101263.0201409708
101263.3057159098
101264.0601667175
101265.3097669712
101267.0224829475
101269.2065782282
101271.9230841393
101275.2744220762
101279.376478088
101284.3243911454
101290.1601854147
101296.8614893839
101304.3479579177
101312.4802845871
101320.9865319518
101329.4274064118
101337.3990735746
101344.4788873943
101350.0631941305
101354.1140934013
101357.5132767136
101360.1735855418
101362.1364478198
101363.5085107993
101364.3185848238
101364.6287233451
101364.5783750112
101364.1374170464
101363.0982094126
101361.2885297715
101358.5430814947
101354.696047766
101349.6107100566
101343.2145883677
101335.5370258087
101326.7352100542
101317.114366525
101307.109412465
101297.1319729994
101287.8014824934
101280.0206763462
101274.0373859789
101269.4720962357
101265.9030303129
101263.4181338646
101261.8321324946
101261.1103432981
101261.1769252229
101261.7894483699
101262.932542272
101264.5613964192
101266.6639761481
101269.2604467473
101272.4189228222
101276.2368230389
101280.8074787474
101286.1977379663
101292.4434124294
101299.5266128346
101307.3391073899
101315.6618252554
101324.1149113869
101332.2793850361
101339.7824729916
101346.0236792427
101350.6476430931
101354.301177888
101357.2744597788
101359.4679716918
101361.0071826997
101361.933500612
101362.2806852295
101362.2400788313
101361.8828716298
101361.0571542161
101359.6145801375
101357.3898115912
101354.2000252591
101349.8559118336
101344.1859403631
101337.0991884228
101328.6777182046
101319.1781840349
101309.0452826617
101298.7309945302
101288.8802828343
101280.4143761561
101273.737170411
101268.6336971303
101264.7435901109
101261.8809145571
101260.0507606058
101259.0723351347
101258.8576033911
101259.2897416646
101260.2424745569
101261.7192613452
101263.7181603823
101266.2429325884
101269.3116153077
101272.9604712918
101277.2501390239
101282.250468807
101288.027932037
101294.5842323193
101302.0404666754
101309.6402462156
101320.7632688108
)
;

boundaryField
{
    inlet
    {
        type            uniformFixedValue;
        uniformValue    sine;
        uniformValueCoeffs
        {
            frequency       constant 3000;
            scale           constant 50;
            level           constant 101325;
        }
        value           uniform 101323.6440830864;
    }
    outlet
    {
        type            waveTransmissive;
        gamma           1.4;
        fieldInf        101325;
        lInf            2.25;
        value           uniform 101322.7468421253;
    }
    frontAndBack
    {
        type            empty;
    }
}


// ************************************************************************* //
