/*--------------------------------*- C++ -*----------------------------------*\
| =========                 |                                                 |
| \\      /  F ield         | OpenFOAM: The Open Source CFD Toolbox           |
|  \\    /   O peration     | Version:  v2012                                 |
|   \\  /    A nd           | Website:  www.openfoam.com                      |
|    \\/     M anipulation  |                                                 |
\*---------------------------------------------------------------------------*/
FoamFile
{
    version     2.0;
    format      ascii;
    class       volScalarField;
    location    "0.011";
    object      pMean;
}
// * * * * * * * * * * * * * * * * * * * * * * * * * * * * * * * * * * * * * //

dimensions      [1 -1 -2 0 0 0 0];


internalField   nonuniform List<scalar> 
1000
(
101325.0358330743
101325.0033601774
101325.0162649503
101325.0284989117
101325.0454132847
101325.0658476348
101325.088105925
101325.1151640119
101325.1439188191
101325.1752933804
101325.2075033187
101325.2396256087
101325.271657011
101325.3032043869
101325.3338664152
101325.3629464542
101325.3898213639
101325.4139662171
101325.4348668183
101325.4522687892
101325.4657669518
101325.4752100475
101325.4803368974
101325.4811281544
101325.4774844861
101325.4695418284
101325.457392255
101325.4413174931
101325.4215061906
101325.3982506869
101325.3717498743
101325.3425213315
101325.3115329065
101325.2800383492
101325.2485162133
101325.2171129339
101325.186002343
101325.1555806163
101325.1263441072
101325.0989436585
101325.0740090453
101325.0521516552
101325.0338367594
101325.0194322359
101325.0091663671
101325.0032095411
101325.0016303404
101325.0044638387
101325.0116402017
101325.0230528297
101325.0385221473
101325.0578887043
101325.0809610188
101325.1074723565
101325.1367332388
101325.1675153784
101325.1986465954
101325.229777502
101325.2607971342
101325.2915693479
101325.3217313634
101325.3508888746
101325.3784314898
101325.4037876862
101325.4262773381
101325.4454013819
101325.4606588729
101325.4717990417
101325.478576374
101325.4809817705
101325.4789551157
101325.4726188831
101325.462011178
101325.4473115951
101325.4285715561
101325.4059927191
101325.3798028865
101325.3508333574
101325.3203480036
101325.2895627182
101325.2587516015
101325.2280388529
101325.1975425184
101325.1675504038
101325.1384261995
101325.1106952969
101325.0849122427
101325.0617187902
101325.0416913536
101325.0253712943
101325.0131422989
101325.0052902057
101325.0019257865
101325.0030919902
101325.008708088
101325.0187035455
101325.0329454452
101325.0513661832
101325.0738023558
101325.0999213167
101325.1288118478
101325.1590771472
101325.1896060136
101325.2201421333
101325.2505740385
101325.2808280238
101325.3105852246
101325.3395720798
101325.3672534897
101325.3931669423
101325.4166485769
101325.4371831508
101325.4541568375
101325.4672033761
101325.4759260329
101325.4802257565
101325.4799597416
101325.4752428189
101325.4660738758
101325.4526292659
101325.4349201043
101325.4131571945
101325.3875961525
101325.3591687528
101325.3292129309
101325.2989646055
101325.2686774514
101325.2384816554
101325.2084401296
101325.1788084444
101325.1498568216
101325.1220396971
101325.0958155885
101325.0717904363
101325.0505092108
101325.0325837047
101325.018471006
101325.0086080498
101325.003215268
101325.0024703658
101325.0063513375
101325.0148540799
101325.0278498094
101325.0452896381
101325.0669616164
101325.0924989136
101325.120877293
101325.1506616566
101325.1807042834
101325.2107652765
101325.2407336558
101325.2705675913
101325.2999880758
101325.3287873161
101325.356491216
101325.3827199382
101325.4068509474
101325.4284151088
101325.4467653681
101325.4614949567
101325.4720964414
101325.4783621915
101325.4800283355
101325.4771148586
101325.4695508719
101325.4574848699
101325.4409140404
101325.4200786774
101325.3952539792
101325.3674301087
101325.3379697147
101325.3081784944
101325.2783320266
101325.2485690316
101325.2189136451
101325.1895966025
101325.1608252704
101325.1330019399
101325.1065102839
101325.0819109533
101325.0596979252
101325.0404932775
101325.0247708601
101325.0130623323
101325.0056772126
101325.0029315381
101325.0049048292
101325.0117007677
101325.0232415151
101325.0395110847
101325.0602773359
101325.0851333645
101325.1129781853
101325.1423172979
101325.1719370393
101325.2015917827
101325.2311593245
101325.2606334386
101325.2897533942
101325.3183663998
101325.3460443356
101325.3724692241
101325.3970683672
101325.4194131653
101325.4388712815
101325.4550187266
101325.4672940608
101325.4754139469
101325.479004793
101325.47799212
101325.4721978562
101325.461711692
101325.4464812681
101325.4267426105
101325.4027780057
101325.3756004917
101325.3466170806
101325.3172239586
101325.2877605976
101325.2583732373
101325.2290593136
101325.200030284
101325.1714401159
101325.1436581675
101325.1169998746
101325.0919862356
101325.0690583088
101325.0488232882
101325.0317523526
101325.0184194086
101325.009196667
101325.0045037397
101325.0045219177
101325.0094716702
101325.0193555524
101325.0342291945
101325.0538782007
101325.0779026054
101325.1051551949
101325.1340672074
101325.1633167377
101325.1926106969
101325.2218278398
101325.250978665
101325.2798272356
101325.3082573027
101325.3358795822
101325.3624273649
101325.3873711228
101325.4103264853
101325.4306838817
101325.4480252
101325.4617663561
101325.4715736704
101325.4769972989
101325.4778705972
101325.4739230153
101325.4651582651
101325.4514587485
101325.4330161366
101325.4100795004
101325.3836462963
101325.3551528692
101325.3261275917
101325.2970094018
101325.2679614827
101325.2389588266
101325.2101969337
101325.1817920487
101325.154078281
101325.1273226542
101325.1020039766
101325.0785176071
101325.0574446328
101325.0392402269
101325.0244950787
101325.0136178984
101325.0071004838
101325.0052070508
101325.0082631569
101325.0163605981
101325.029643792
101325.0479549377
101325.0709451496
101325.0974819888
101325.125941021
101325.1548481458
101325.1838155878
101325.2127166343
101325.2415713609
101325.2701707635
101325.2984209067
101325.3259723958
101325.3525937253
101325.3777993293
101325.4012403818
101325.4223378532
101325.4406883214
101325.4557038164
101325.467021531
101325.4741416271
101325.4768266175
101325.4747264634
101325.4677594941
101325.4557362697
101325.4387758419
101325.4170667969
101325.391526628
101325.3635873565
101325.3349190012
101325.3061198774
101325.2773841438
101325.2486715298
101325.2201617716
101325.1919394959
101325.1643128089
101325.1375036282
101325.1119588438
101325.0880282281
101325.066267776
101325.0471061668
101325.0311376419
101325.0187868178
101325.0105920705
101325.0068813037
101325.0080622605
101325.0143129127
101325.0258640955
101325.0426383929
101325.0643771377
101325.0900314174
101325.1179735489
101325.1465438501
101325.1752072138
101325.2038102903
101325.2323875283
101325.2607472112
101325.2888205116
101325.3162859311
101325.3429457461
101325.3683495876
101325.3921828372
101325.4138973158
101325.4331076186
101325.4492335803
101325.4618972976
101325.4705703838
101325.4749614094
101325.4746606965
101325.4695101538
101325.4592521845
101325.4439251376
101325.4236331804
101325.3991668485
101325.3718888397
101325.3435910403
101325.3150959572
101325.286652061
101325.2582188937
101325.229949002
101325.2019153053
101325.174386017
101325.1475636914
101325.1218478714
101325.0975659802
101325.0752310413
101325.0552594411
101325.0382256201
101325.0245679394
101325.014843549
101325.0094312399
101325.0087953057
101325.0131902321
101325.0229218724
101325.0380034905
101325.0582869633
101325.0828685051
101325.1101853195
101325.1384053034
101325.1667749604
101325.1950942165
101325.223401474
101325.2515299328
101325.279421787
101325.306791588
101325.3334583278
101325.3590150279
101325.3831644969
101325.4054001176
101325.4253451024
101325.442444172
101325.4563044226
101325.466392517
101325.4723709626
101325.4737946637
101325.4704364097
101325.461985054
101325.4483953209
101325.4296813311
101325.4064748941
101325.3800025809
101325.352124055
101325.3239259805
101325.2957653451
101325.267602302
101325.2395726043
101325.2117293462
101325.18431572
101325.1575063976
101325.1316706455
101325.1071045288
101325.0842920571
101325.0636254678
101325.045663983
101325.0308434333
101325.0197330467
101325.0127406138
101325.0103732179
101325.0129412182
101325.0208159083
101325.0340941116
101325.0527434396
101325.0760502524
101325.1025810759
101325.130400728
101325.1584827925
101325.1865336988
101325.2145926745
101325.2425109043
101325.2702412619
101325.2975175
101325.3241732285
101325.3498273208
101325.3742037901
101325.3968303581
101325.4173562798
101325.4352523897
101325.450139822
101325.4615244576
101325.4690236524
101325.4721623602
101325.4706925059
101325.4641864261
101325.4525129076
101325.435542245
101325.4138758138
101325.3883238867
101325.3608359823
101325.3327390555
101325.3044680309
101325.2761563773
101325.2480043885
101325.2201020331
101325.1926245044
101325.1658654522
101325.1401849175
101325.1158109421
101325.0932639276
101325.0728834073
101325.0551470062
101325.0402931458
101325.0288695374
101325.0213168465
101325.0179405541
101325.0191031369
101325.0250303487
101325.036102088
101325.052051107
101325.0725056144
101325.0959071261
101325.1202150058
101325.1443723687
101325.1681778635
101325.1910295533
101325.21299402
101325.2340025246
101325.2537084015
101325.2724586608
101325.2895483524
101325.305003878
101325.3185917849
101325.3301464801
101325.3392279319
101325.3456206152
101325.3488093945
101325.3488617189
101325.3453629695
101325.3378527732
101325.3267387002
101325.3102855127
101325.2906453214
101325.266913419
101325.2405824496
101325.2134136742
101325.1864895069
101325.1604041523
101325.1354692187
101325.1119966608
101325.0902706349
101325.0700914382
101325.0517183121
101325.0354321706
101325.0210001596
101325.0085588044
101324.9983664753
101324.9905326327
101324.9853605703
101324.9828475364
101324.9835521769
101324.987616298
101324.9952164735
101325.0067035557
101325.0223403268
101325.0426901362
101325.0658119835
101325.0916138171
101325.1180849717
101325.1445288188
101325.1703723983
101325.1953239437
101325.2187575272
101325.2409003607
101325.2613769432
101325.2807159752
101325.2982756258
101325.3137027026
101325.3273321848
101325.3389883729
101325.3483321469
101325.3551540503
101325.3588645442
101325.3593946504
101325.356416223
101325.3495899248
101325.3389134691
101325.3233593356
101325.3052209436
101325.2822219332
101325.2565879591
101325.2291951226
101325.2017306435
101325.1746416138
101325.1486676994
101325.1238075429
101325.1006590383
101325.0793883297
101325.0598015008
101325.0427014814
101325.0272959797
101325.0139434419
101325.002792812
101324.9939710968
101324.9875628037
101324.9838232641
101324.9828555737
101324.9851959766
101324.9909102527
101325.0005413378
101325.0134377555
101325.0328079109
101325.0535733704
101325.0776304511
101325.1029559248
101325.1285299781
101325.1537907378
101325.1784644496
101325.2018835224
101325.2239057647
101325.2445489905
101325.2632971909
101325.2810726621
101325.2963736399
101325.309464729
101325.3209285313
101325.3301782638
101325.3370343175
101325.3411654593
101325.3420402708
101325.3395625321
101325.3334000574
101325.3233789863
101325.3086373813
101325.2918561305
101325.2700196182
101325.245018553
101325.2178613596
101325.1899211805
101325.1622210401
101325.1351682819
101325.1093323269
101325.0848135176
101325.0623343454
101325.0413003998
101325.0232712252
101325.0070619719
101324.9924032307
101324.9804309197
101324.9705476448
101324.9630841592
101324.9582237533
101324.9558964241
101324.9566323034
101324.9604743268
101324.9682308428
101324.9783382349
101324.9961052601
101325.0151211318
101325.0372042314
101325.0611894156
101325.0857918634
101325.110309759
101325.1343144579
101325.1575701483
101325.1792945719
101325.1998922739
101325.218252789
101325.2361653791
101325.2515436639
101325.2639568205
101325.2752513109
101325.2841527369
101325.2908742742
101325.2950299554
101325.296219473
101325.2940948619
101325.2882873866
101325.2789618968
101325.2648906077
101325.2485757994
101325.2286314178
101325.2041496197
101325.1773274318
101325.1490779393
101325.1207423158
101325.0927463474
101325.0658195513
101325.0399928147
101325.0160638282
101324.9937405689
101324.9743054179
101324.957101029
101324.9410714139
101324.9280161596
101324.917071095
101324.9085575566
101324.9024994829
101324.8990838618
101324.8982765946
101324.9003777991
101324.9059202097
101324.914685852
101324.9279195672
101324.9472170892
101324.9667263972
101324.9891855594
101325.0126290568
101325.0361821917
101325.0594285795
101325.0820257816
101325.1034847277
101325.1236488856
101325.1421150556
101325.1593178466
101325.1749781172
101325.1871602562
101325.1978020473
101325.2064736011
101325.2128324512
101325.2167610838
101325.2180631625
101325.21604201
101325.2105521176
101325.2013704293
101325.1884336708
101325.1710951681
101325.1540123269
101325.1298132495
101325.1035060191
101325.0750834379
101325.0461621711
101325.0173586622
101324.9892034811
101324.9622617022
101324.9367429434
101324.9133970992
101324.8918019389
101324.8735913307
101324.856732932
101324.8418036626
101324.8298991333
101324.8200896003
101324.8128635974
101324.8082472969
101324.8062214634
101324.8068405072
101324.8101397186
101324.8174176917
101324.8260552473
101324.8456913872
101324.8625904387
101324.8833320348
101324.9052979458
101324.9278307893
101324.9501392008
101324.9718804268
101324.9927811169
101325.0123360874
101325.0308347468
101325.0469875094
101325.0628973504
101325.0755232651
101325.0849339782
101325.0933986551
101325.0992996008
101325.1028551293
101325.103857235
101325.1019760023
101325.0966936321
101325.0872724884
101325.0751684233
101325.0565453788
101325.0420955358
101325.0183036137
101324.9924875587
101324.9640990167
101324.9347000456
101324.9051798065
101324.8759941068
101324.8476645788
101324.8207145998
101324.7958302494
101324.7725899529
101324.7529968904
101324.7352680702
101324.7182321955
101324.7051415366
101324.6941750675
101324.685721685
101324.6798399807
101324.6767005669
101324.6760487688
101324.6774579966
101324.6826611211
101324.6893665905
101324.7050683047
101324.7220555941
101324.7402072783
101324.7606948663
101324.7819406962
101324.8032403956
101324.824094615
101324.8440903517
101324.863027233
101324.8809311941
101324.8968498228
101324.9122594982
101324.9252800796
101324.9338912748
101324.9419244931
101324.9475134845
101324.95063834
101324.9512596018
101324.9491865446
101324.944135652
101324.9347453969
101324.9222311339
101324.9054761711
101324.8873189509
101324.8681584037
101324.8417573301
101324.8137966961
101324.7840586677
101324.7539389365
101324.7238872932
101324.6942936385
101324.6658721136
101324.6391937409
101324.614898776
101324.5928886292
101324.5740181782
101324.5558602226
101324.5407790724
101324.5286226537
101324.5188775402
101324.5116582849
101324.5071415184
101324.5054486786
101324.5056380254
101324.508115122
101324.5143472689
101324.5226605751
101324.542814733
101324.5573895862
101324.576329951
101324.5959825467
101324.6161941001
101324.636041595
101324.6551285891
101324.6730180888
101324.6900523082
101324.706144367
101324.7200182598
101324.7332978463
101324.7426434125
101324.7490602146
101324.7544709628
101324.75716777
101324.7573272948
101324.7548004711
101324.7496779469
101324.7407986158
101324.7272026515
101324.7119694143
101324.6890319163
101324.6763286267
101324.6482370467
101324.6208333531
101324.5907765805
101324.5601629018
101324.5293796894
101324.4987942017
101324.4686743897
101324.4402571383
101324.4143965996
101324.3901651917
101324.3700747807
101324.3512400392
101324.333133898
101324.3197313271
101324.308563373
101324.3000561181
101324.2940983214
101324.2910066226
101324.2905662868
101324.2906644475
101324.2954341424
101324.2993038973
101324.3189502793
101324.3319573691
101324.3484985232
101324.3664529658
101324.385286161
101324.4040474476
101324.4222453997
101324.439021685
101324.454846335
101324.4702749522
101324.4832947081
101324.496841428
101324.5067946932
101324.5112359917
101324.5165409503
101324.5187710026
101324.5186087717
101324.5155893765
101324.509900856
101324.5015375572
101324.4876784821
101324.4715822061
101324.4505825416
101324.432623717
101324.4103106467
101324.3814793783
101324.3515219601
101324.3203629715
101324.2889210944
101324.2575986205
101324.2262344588
101324.1958320512
101324.1678596362
101324.1423205131
101324.119786996
101324.0997012391
101324.07962145
101324.0641010137
101324.0514551154
101324.0415069126
101324.0341502679
101324.0293969933
101324.0278602779
101324.0270091936
101324.0284872831
101324.0331816445
101324.0414783114
101324.0616214065
101324.0731591323
101324.0894710495
101324.1064286727
101324.1238550264
101324.141079043
101324.1569557238
101324.1713206779
101324.1851714481
101324.1985041958
101324.209724885
101324.2199753143
101324.2254678186
101324.2285857616
101324.2306289529
101324.2299001178
101324.2264881329
101324.2201312573
101324.2113810305
101324.1980593733
101324.1801695151
101324.1615085984
101324.1338179352
101324.1238079389
101324.0901371358
101324.0608010476
101324.0286586219
101323.9965240296
101323.9644275982
101323.9322512259
101323.9001086939
101323.869483062
101323.8425190842
101323.8167497589
101323.795674181
101323.7751521839
101323.7552638376
101323.7411341512
101323.7293093468
101323.7205029803
101323.7142074324
101323.7110227293
101323.7094208169
101323.708319341
101323.7122258624
101323.7130920512
101323.7364868116
101323.7443866721
101323.7584568855
101323.7730335367
101323.7887728039
101323.8046254411
101323.8198253916
101323.83309859
101323.844916859
101323.8574862556
101323.8666521337
101323.8784704432
101323.8849330256
101323.8841024284
101323.8864869604
101323.8849862086
101323.8811994349
101323.874393681
101323.865142833
101323.8518096721
101323.8332567453
101323.8134457678
101323.7881259719
101323.7699418084
101323.7446031286
101323.7123477064
101323.6799871718
101323.6468754401
101323.6137251451
101323.5809190663
101323.5477291106
101323.5150157554
101323.4854174908
101323.4575839121
101323.4342215233
101323.412422331
101323.3895471577
101323.3729804915
101323.3590412499
101323.3482178166
101323.3403296821
101323.3355485371
101323.3335749484
101323.3300802561
101323.3309716024
101323.334430899
101323.3397568368
101323.3637704645
101323.3676923268
101323.38109483
101323.3944929687
101323.4085489908
101323.4223945681
101323.4346312188
101323.4455376925
101323.4560216908
101323.4648736099
101323.4724352005
101323.4800007652
101323.4811485489
101323.4799370181
101323.4786394067
101323.4738152425
101323.4661473795
101323.4559674738
101323.4452106585
101323.4228236032
101323.395882079
101323.362327556
101323.3409915019
)
;

boundaryField
{
    inlet
    {
        type            calculated;
        value           uniform 101324.9999999999;
    }
    outlet
    {
        type            calculated;
        value           uniform 101323.342655627;
    }
    frontAndBack
    {
        type            empty;
    }
}


// ************************************************************************* //
