/*--------------------------------*- C++ -*----------------------------------*\
| =========                 |                                                 |
| \\      /  F ield         | OpenFOAM: The Open Source CFD Toolbox           |
|  \\    /   O peration     | Version:  v2012                                 |
|   \\  /    A nd           | Website:  www.openfoam.com                      |
|    \\/     M anipulation  |                                                 |
\*---------------------------------------------------------------------------*/
FoamFile
{
    version     2.0;
    format      ascii;
    class       volScalarField;
    location    "0.011";
    object      rho;
}
// * * * * * * * * * * * * * * * * * * * * * * * * * * * * * * * * * * * * * //

dimensions      [1 -3 0 0 0 0 0];


internalField   nonuniform List<scalar> 
1000
(
1.176299956876344
1.176323798127111
1.176270283168938
1.176226794098482
1.17617609072059
1.176130002901781
1.176091050145403
1.176058287709031
1.176030249676564
1.176011078125746
1.176005205966379
1.176004674426222
1.176007097020502
1.176015322500007
1.176031711545671
1.17605666104452
1.176089237834573
1.176127996336204
1.176171705401934
1.176219485784278
1.176270610889842
1.176324306239116
1.176379668898256
1.17643567510093
1.176491222757956
1.176545200295988
1.17659662303635
1.176644872943775
1.176689903837187
1.176731908630706
1.176769663551337
1.176797760184533
1.176809777258909
1.17681108275703
1.176810598068846
1.176808351004741
1.176802251280071
1.176790214146277
1.176770540932943
1.176742449816478
1.176706280409861
1.176663298958083
1.176615185395925
1.17656351852196
1.176509529389714
1.17645415450445
1.17639822474226
1.176342605682101
1.176288188829046
1.176235716957922
1.17618554335727
1.176137642857062
1.176092446051919
1.176053035999424
1.176026803650599
1.176017857209083
1.17601724669664
1.176017634277363
1.176019752540057
1.176025073654426
1.176035425813761
1.176052417757499
1.176077178552078
1.176110060712509
1.176150540932724
1.176197347353005
1.176248784434706
1.176303122941444
1.17635888499113
1.176414931524842
1.176470413140005
1.176524733591492
1.176577590140083
1.176628966779805
1.176678822581207
1.176726110941422
1.176766780696167
1.176792958395087
1.176801544786442
1.176802162879599
1.176801712837058
1.176800009433317
1.176795493428585
1.176786700281499
1.176772092903284
1.176750414576159
1.176720914686872
1.176683545222062
1.176639010905145
1.176588649221454
1.176534181598923
1.17647740841152
1.17641991862138
1.176362882662298
1.176306977964055
1.176252440262465
1.176199222634388
1.176147421157272
1.176098465501121
1.176057345282521
1.17603247389118
1.17602523917021
1.176024870986402
1.17602517891541
1.176026895233589
1.176031080327126
1.17603918867712
1.176052596734944
1.176072513030973
1.176099766169265
1.176134640581508
1.176176767712191
1.1762251331057
1.17627823025898
1.176334323661393
1.176391736127609
1.176449097794026
1.176505529644055
1.17656070780962
1.176614695073798
1.176667388180698
1.176717329079855
1.17675971036552
1.176786273541215
1.176794770822784
1.176795419247953
1.176795068561588
1.176793760327154
1.176790226021857
1.176783273066688
1.176771574303945
1.176753912995541
1.176729325959968
1.176697276142268
1.176657778346672
1.176611451249877
1.176559476867253
1.17650344732757
1.176445097599912
1.176385988020179
1.176327253099561
1.176269511048938
1.176212995527933
1.176158075755738
1.176106575899232
1.176063955452307
1.176038661762961
1.176031378616795
1.176030966904018
1.176031194173484
1.176032554379612
1.176035933108361
1.176042553460611
1.176053612768017
1.176070246588979
1.176093379362938
1.176123591250876
1.176160991387202
1.176205144824963
1.176255093472312
1.17630947548271
1.176366719640698
1.176425293687358
1.176483968696365
1.17654199444025
1.176599025023692
1.176654623624424
1.176707093811949
1.176751501345898
1.176779569734846
1.176788909431742
1.176789740921051
1.176789487639615
1.176788507308527
1.176785717793832
1.176780099658381
1.176770479998739
1.1767557304622
1.176734859779038
1.176707145052183
1.176672247033718
1.176630298123843
1.176581943860659
1.176528302504327
1.176470812306659
1.17641099007711
1.176350181617014
1.176289396282292
1.176229334619959
1.176170840657808
1.176116203041792
1.176071273572359
1.176044612326673
1.176036716929441
1.176036176420601
1.176036346872547
1.176037431342135
1.176040185454825
1.176045672171132
1.176054955995175
1.176069091647477
1.176089008780118
1.176115408420967
1.176148652305517
1.176188678209878
1.176234971558345
1.176286602143553
1.176342324776533
1.176400752498125
1.176460588090446
1.176520820837431
1.176580725102961
1.17663946663682
1.176695031089963
1.176742311162997
1.176772856586885
1.176783667270659
1.176784820698801
1.176784641538458
1.176783901848471
1.176781675880616
1.176777079780473
1.1767690672356
1.176756595981083
1.176738692304414
1.176714555740688
1.176683655205559
1.176645816113324
1.176601286690027
1.176550751459289
1.176495258513573
1.176436067431309
1.176374465789417
1.176311615239362
1.176248533491229
1.176186474395133
1.176128162216293
1.17607987243487
1.176050657173226
1.176041537774488
1.176040781906953
1.176040892744754
1.176041742486666
1.176043988630461
1.176048578287841
1.176056462745021
1.1760686123164
1.176085926344161
1.176109153604928
1.176138798787237
1.176175041602576
1.176217690544379
1.176266177775206
1.176319601096543
1.176376832746411
1.176436692972306
1.176498115120752
1.176560164781331
1.176621728627502
1.176680561665704
1.176731438437355
1.176765562671356
1.176778689733618
1.176780393757912
1.176780280572344
1.176779744966306
1.176777977560473
1.17677420223022
1.176767474590661
1.176756837830997
1.176741361042104
1.176720221010041
1.176692780223528
1.176658666234961
1.176617842967405
1.17657064738882
1.176517764786892
1.176460144387695
1.176398881160871
1.176335100192359
1.176269938589703
1.176204883174347
1.176142917545549
1.176090558426003
1.176057481158454
1.176046139717893
1.176044942782774
1.176045008680163
1.176045663930863
1.176047486047637
1.176051326839724
1.176058051451728
1.176068560010682
1.176083713156983
1.176104268691937
1.176130806082355
1.176163658080836
1.176202862026326
1.176248133607241
1.176298872953099
1.176354227280529
1.176413211768149
1.176474830498621
1.176538091549997
1.176601759894537
1.176663534207353
1.176718287266676
1.176756988770338
1.176773593298409
1.176776304457642
1.176776262010129
1.176775903957984
1.176774521684113
1.176771436476129
1.176765780826216
1.176756670697199
1.176743223332352
1.176724621178025
1.176700173436066
1.176669384153103
1.176632019010053
1.176588149930568
1.17653815831001
1.176482697451475
1.176422626522529
1.176358935883582
1.176292742896908
1.176225589050598
1.176160463617596
1.17610377145678
1.176065670360767
1.176050879408124
1.176048851597742
1.176048863494082
1.17604934312075
1.176050791144626
1.176053983430114
1.176059715927033
1.176068828040452
1.176082139962847
1.176100401745097
1.176124231623807
1.176154059613863
1.176190081852824
1.176232225753667
1.176280137313219
1.176333213714564
1.176390681573782
1.17645167582922
1.176515245097916
1.176580159756019
1.176644225223397
1.176702664329658
1.176746565032092
1.176767920260999
1.176772372440018
1.176772480617086
1.176772259363575
1.176771206426931
1.176768713890853
1.176763979330049
1.176756177963932
1.176744470956383
1.17672805740941
1.176706222775705
1.17667839600668
1.176644207722497
1.176603534468943
1.176556517516742
1.176503556364206
1.176445279587271
1.176382502747176
1.176316238512617
1.176247951721549
1.176180433124352
1.176119632805776
1.176075768529274
1.176056164783167
1.17605262977452
1.176052565261452
1.176052880305763
1.176053995057226
1.176056609702836
1.176061466519033
1.176069357320697
1.176081065120516
1.17609732400942
1.176118769752354
1.176145893887296
1.176179002009189
1.1762181764253
1.176263255364895
1.176313846716321
1.176369373394649
1.176429118909546
1.17649222674069
1.17655755676313
1.176623130548858
1.176684707477433
1.176733911399594
1.176761135116722
1.176768397727468
1.17676885057285
1.176768724671098
1.176767955378759
1.176765983852884
1.17676205814381
1.17675540316406
1.176745217100135
1.176730719458469
1.176711188925474
1.176686011188756
1.176654728947298
1.176617080942423
1.176573025052067
1.176522750425212
1.176466676000929
1.176405433157495
1.17633988344343
1.176271333066427
1.176202264997244
1.176137932571219
1.176088111518033
1.176062389937732
1.176056366855279
1.176056111162627
1.17605644260158
1.176057365336146
1.176059533954878
1.176063600761106
1.176070301112272
1.176080391329904
1.176094619411906
1.176113683205185
1.176138184756371
1.176168576259534
1.176205102103863
1.176247758578378
1.176296289240458
1.176350204466848
1.176408815727343
1.176471259923696
1.176536397678854
1.176602526698065
1.176665721930341
1.176718725064672
1.176751094992295
1.17676105661827
1.176762027059953
1.17676141804805
1.176760133498491
1.176758776858953
1.176756689833178
1.176752997778687
1.176746674158824
1.176736687227709
1.176722045042635
1.176701839393945
1.17667529803835
1.176641812830434
1.17660097782025
1.17655266104112
1.176497064295455
1.176434706940569
1.176366318157983
1.176293110161435
1.176217455545136
1.176143830712798
1.176081633225669
1.17604299240352
1.176024603282707
1.176010209121408
1.175999749114124
1.17599137365317
1.175984215933453
1.175978488417384
1.175975704692567
1.175976752875153
1.175981961358102
1.175993131734231
1.176011575283253
1.17603782288367
1.176071990340499
1.176114124791419
1.176164174944702
1.176221768095976
1.17628621126331
1.176356778640558
1.176432471900607
1.176511264467904
1.176589717530487
1.176660771804038
1.176712859594725
1.176745494406507
1.176773248956369
1.176794663087542
1.176812053015292
1.176827097989717
1.176840135286025
1.176850528945185
1.176857333584937
1.176858472553387
1.176852864029355
1.17684048162648
1.176819498399501
1.176788777951546
1.1767477178748
1.176696409749691
1.176635517818938
1.176565997314674
1.176488769607762
1.176405451107489
1.17631931012943
1.176235178079494
1.176161483699504
1.176107750160948
1.176072221672319
1.176043410931566
1.17602259876887
1.176007794488001
1.175996919475701
1.175988894982425
1.175983361578398
1.175981813765197
1.175985154245654
1.175993076302795
1.17600688538708
1.17602768544226
1.176056538982232
1.176094032259009
1.176140118196101
1.176194319975874
1.176255948234914
1.176324199815769
1.176397997403547
1.176474983204474
1.17655120049571
1.176622368924837
1.176681558478019
1.17672165170552
1.176752492149227
1.176778215812937
1.176798674332058
1.176815022838386
1.176828017839934
1.176837891073791
1.176844863640929
1.176847083363364
1.176843415370722
1.176834115416337
1.176817288772358
1.176791287612139
1.176755004760884
1.176708204393253
1.176651228293028
1.176584766432729
1.176509880204998
1.176428398370919
1.176343636509155
1.176259896193994
1.176182796022088
1.176121197593116
1.176079010645764
1.176046805704587
1.176021532756881
1.176003484548796
1.175991106058636
1.175983030457826
1.175978158518898
1.175977040715882
1.175980092545752
1.175987058445617
1.175999048664781
1.176017027768116
1.176042124031864
1.176075354000817
1.176117303169095
1.176167924934747
1.176226592093222
1.176292307036711
1.176363828326609
1.176439168559966
1.176514742017557
1.176586292642432
1.176649623920869
1.176698313707694
1.176731144214834
1.176760094537995
1.176783338937375
1.176801736552202
1.176816054974379
1.176826684504344
1.176833924313097
1.176836792389252
1.176834439215427
1.17682687487507
1.176812815471292
1.176790731014235
1.176759273181682
1.176717516217295
1.176665065802502
1.176602314535877
1.176530504163356
1.176451419870043
1.176367869987406
1.176283991685358
1.176204500487317
1.176136399349387
1.176086175562037
1.176050745877283
1.17602169746597
1.176000427240532
1.175985869823435
1.175976503309038
1.175971064946922
1.1759697625931
1.17597264481916
1.175979142735176
1.175990007519292
1.176005972174181
1.176028169848198
1.176057824324567
1.176095802781022
1.176142394574084
1.176197362421751
1.176259968803389
1.176328955610247
1.17640247491029
1.176477437201658
1.176549741561686
1.176615846727868
1.176670626234938
1.176708839071513
1.176739336184004
1.176765158928417
1.176785835064695
1.176801943103839
1.176813888182609
1.176821886496125
1.176825611484219
1.17682459205766
1.176818781711136
1.176807278250547
1.176788439204709
1.176760769698835
1.176723205421695
1.176675264321073
1.176617046522006
1.176549253863705
1.176473219581152
1.176391360928756
1.176307582742441
1.176226194079804
1.176152797178519
1.176095196909839
1.17605465253255
1.176022623354503
1.175997740908657
1.175980371251546
1.175969198935067
1.175962680401059
1.175960793768049
1.175963316449205
1.175969251124027
1.175979220001784
1.175993780878824
1.176013846839154
1.176040519807763
1.176074821677577
1.176117456296011
1.176168589030738
1.176227713830267
1.176293712218686
1.176364997469407
1.176439082560518
1.176512107229048
1.17658014902495
1.176639500363817
1.176684970149255
1.176716743057488
1.176744975351173
1.176767745880737
1.176785694075932
1.176799273722925
1.176808562389314
1.176813686275845
1.176814241063702
1.176810013702877
1.176800576915005
1.176784272253309
1.176759884479869
1.176726449048611
1.176683179327457
1.176629539835117
1.176565727478605
1.17649299789309
1.176413480419825
1.17633043054029
1.176247946066416
1.176170765208772
1.176106200503564
1.176058678501536
1.176023701091848
1.175995085675072
1.175974831427091
1.175961537979509
1.175953342936502
1.175950324398234
1.175952258590041
1.17595767682234
1.175966985059836
1.175980451991024
1.175998730837016
1.176022869930899
1.176054023148241
1.176093053989009
1.176140301580767
1.176195596146331
1.176258253934716
1.176326983204617
1.176399686408668
1.176472933646121
1.176542725306734
1.176605763150102
1.176657177751127
1.176693183990548
1.176722867576646
1.17674789962733
1.176767864373579
1.176783140534092
1.176793935904825
1.176800532067948
1.176802545189031
1.176799934300358
1.17679271361506
1.176779274774776
1.176758232293642
1.176728477413029
1.17668909471241
1.176639505914035
1.176579817790882
1.17651094843647
1.17643440088417
1.17635274619238
1.176269882511621
1.176190045080464
1.176119454029055
1.176064901727148
1.176025407625175
1.17599355233264
1.175969806865015
1.175953770561346
1.175943646904562
1.175939360323372
1.175940455373014
1.175945212261312
1.175953792864979
1.175966291744153
1.175983182732095
1.176005329211149
1.176033770439441
1.176069425938338
1.176112921328726
1.176164463092897
1.176223653851772
1.176289418059851
1.176360091495189
1.176432926157412
1.176504011400179
1.176569792098833
1.176626251535079
1.176668906352129
1.176699660544593
1.176726907252753
1.176748561148576
1.176765340970729
1.176777706953945
1.176785813059323
1.176789396709524
1.176788649403736
1.176783585412454
1.176772751240266
1.176754643267295
1.176728214872906
1.176692670960563
1.176647393784016
1.176592074713285
1.176527023384637
1.176453421898369
1.176373575545271
1.176291046267134
1.17620965536693
1.176134351654659
1.176072797698377
1.176027410778491
1.175992489895691
1.175964970354151
1.175945812972173
1.17593352684452
1.175927656071085
1.175927436182162
1.175931441661779
1.175939405820506
1.175951175567988
1.175966968344041
1.175987390835178
1.176013396300964
1.176046044195175
1.17608615532404
1.176134053498435
1.17618955497277
1.176252006310333
1.176320193702975
1.176391923840616
1.176463589138702
1.176531443946935
1.176592154957883
1.17664076248361
1.176675215040125
1.176704024084793
1.176727720256288
1.176746158604713
1.176759968580794
1.1767693006667
1.176774193776012
1.176775038192426
1.176771918399207
1.176763780140217
1.176748950871193
1.176726324940036
1.17669493162377
1.176653838024755
1.176602433572253
1.176540901568211
1.17647044320723
1.176392966348232
1.176311305194707
1.17622900597563
1.17615041628507
1.176082691825605
1.176030803123063
1.175991988824086
1.175960528860014
1.175937901459781
1.175923421637731
1.175915418587083
1.175913395971446
1.175916694549915
1.175923843967371
1.175934908371569
1.1759497921797
1.175968881564592
1.175993004668095
1.176023125407223
1.17606006244636
1.176104351018973
1.176156193165176
1.176215274017644
1.176280584476993
1.176350420872574
1.176421872839817
1.176491191513995
1.176555156272844
1.176609228591279
1.176649462714013
1.176679837581432
1.176705676834045
1.176725592049778
1.176740491000485
1.176750900565618
1.176756957710619
1.176759056164435
1.176757707370591
1.176752188361653
1.176740627301164
1.176721697979009
1.176694305988503
1.176657403367426
1.176610253134862
1.17655278387519
1.176485754506213
1.17641056300311
1.176329747438511
1.176247004431069
1.176166148783914
1.176093072719212
1.176034573867893
1.175990626358387
1.175955799059847
1.175929614820368
1.175912248669315
1.175901633055886
1.175897736846621
1.175900105186085
1.175906362051728
1.175916725334917
1.175930929325806
1.175949042495373
1.175971570914856
1.175999363873923
1.176033382263343
1.176074414836127
1.176122809784696
1.17617838121848
1.176240462468626
1.176307897959623
1.176378432421027
1.176448423107017
1.176514521631577
1.176573223942781
1.17661952542547
1.176653112410357
1.17668129555778
1.176703352391653
1.176719626529011
1.176731002274167
1.17673771854535
1.176740289868798
1.176739872411591
1.176736216425584
1.176727600377333
1.176712596320492
1.176689833667366
1.176657937420728
1.176615773706831
1.176562741116719
1.176499082360951
1.176426100114504
1.17634632461511
1.176263361757055
1.176180624681349
1.176103250260319
1.176038725260281
1.175989105787753
1.175951245224897
1.175921646138149
1.175901038138102
1.175887884860959
1.175881898779926
1.175882450931782
1.175887530752832
1.175897010787619
1.17591051937421
1.175927956644337
1.175949489759704
1.175975683513054
1.176007345675332
1.176045250056529
1.176089950765515
1.176141744456178
1.176200482396105
1.176265266670967
1.176334280322456
1.176404373340779
1.17647207158944
1.176534284391504
1.176586033166597
1.176624372040923
1.176654664366353
1.176679316252577
1.176697502705488
1.176710264099763
1.176717943779003
1.176720821806224
1.176720484422604
1.176717522005395
1.176710675668459
1.17669871575478
1.176680271861288
1.176653828562054
1.176617816259951
1.176570811889365
1.176512059362853
1.176442235496347
1.176363464140775
1.176279428777152
1.176193873955196
1.176112146141281
1.176041887949937
1.175986458524721
1.17594408735467
1.175911804815197
1.175888099239964
1.175873015750274
1.175865062695274
1.175863489317164
1.175867446564608
1.175875890122949
1.175888711344451
1.175905991557767
1.175927924263111
1.175954794969148
1.175986840514991
1.176024031992978
1.176065773260622
1.176111034677494
1.176158788093511
1.176210943019132
1.176265266519474
1.176360135483234
)
;

boundaryField
{
    inlet
    {
        type            calculated;
        value           uniform 1.176395973595895;
    }
    outlet
    {
        type            calculated;
        value           uniform 1.176381698717467;
    }
    frontAndBack
    {
        type            empty;
    }
}


// ************************************************************************* //
