/*--------------------------------*- C++ -*----------------------------------*\
| =========                 |                                                 |
| \\      /  F ield         | OpenFOAM: The Open Source CFD Toolbox           |
|  \\    /   O peration     | Version:  v2012                                 |
|   \\  /    A nd           | Website:  www.openfoam.com                      |
|    \\/     M anipulation  |                                                 |
\*---------------------------------------------------------------------------*/
FoamFile
{
    version     2.0;
    format      ascii;
    class       volScalarField;
    location    "0.011";
    object      T;
}
// * * * * * * * * * * * * * * * * * * * * * * * * * * * * * * * * * * * * * //

dimensions      [0 0 0 1 0 0 0];


internalField   nonuniform List<scalar> 
1000
(
299.9868899209289
299.9886393645544
299.9823071438735
299.9776769724573
299.9732983350034
299.9695369367204
299.9661300048531
299.9630768185913
299.9604367979485
299.9587311189442
299.9583505617058
299.9585464570519
299.9590468798062
299.9599896944507
299.9616814047633
299.9642154025352
299.9675029114398
299.9713974311978
299.9757783061943
299.9805640830157
299.9856905814273
299.9910880450943
299.9966710956172
300.0023389438154
300.007980097589
300.0134800932754
300.0187359611173
300.0236809612355
300.0283059562385
300.0326260842228
300.0365118446996
300.0394068635651
300.0406544853452
300.040800942355
300.0407591509721
300.0405291022208
300.039896062516
300.0386555731628
300.0366360831893
300.0337581112531
300.0300575993488
300.0256647511424
300.0207512887874
300.0154781174668
300.0099703139684
300.0043226745329
299.9986191289099
299.9929471974424
299.9873972113224
299.9820445623595
299.97692514198
299.9720364248453
299.9674225688705
299.9633985732386
299.9607193199719
299.9598045550116
299.9597410269744
299.9597794420881
299.9599949789414
299.9605383101035
299.9615954046591
299.9633303393119
299.9658583173218
299.969215192558
299.9733474249342
299.9781251132609
299.9833751573042
299.9889210577988
299.9946120011843
300.0003317736676
300.0059937303848
300.0115370608922
300.0169309001258
300.022173632125
300.0272610863967
300.0320864675273
300.036236404797
300.038907545829
300.0397837196297
300.0398468285842
300.0398009370525
300.0396271397541
300.0391663291617
300.0382690910724
300.0367785860514
300.0345665676489
300.0315564213388
300.0277432127081
300.0231988079856
300.0180596417321
300.0125013372362
300.0067075905471
300.0008405422103
299.9950196376751
299.9893140202047
299.983747760121
299.9783160800895
299.9730287973933
299.9680318513309
299.9638345733517
299.9612958197408
299.9605573285386
299.9605197487476
299.960551185826
299.9607263854253
299.961153585459
299.9619812516555
299.9633498795951
299.9653828168802
299.9681646205971
299.9717242916638
299.9760241710486
299.9809606703907
299.9863799850727
299.9921049502881
299.9979643718558
300.003818438301
300.0095774457153
300.0152083520892
300.0207175745297
300.0260945856544
300.031190614928
300.0355151448268
300.0382255622515
300.039092589273
300.0391587541565
300.0391229746231
300.0389894913487
300.038628867713
300.0379194165582
300.0367257149647
300.0349236005326
300.0324147744043
300.0291444084211
300.0251139759981
300.0203865644932
300.0150827472013
300.0093649569944
300.0034102193897
299.9973777569691
299.9913833513261
299.985490102431
299.9797218675766
299.9741163422919
299.9688597336679
299.9645093391305
299.9619274878644
299.9611840557851
299.9611420323453
299.9611652351875
299.9613040830775
299.9616489714259
299.9623247482154
299.9634536270342
299.965151510486
299.9675127437349
299.9705965207888
299.9744139475113
299.9789205885061
299.9840186107746
299.9895689777796
299.9954112968056
300.0013891677165
300.0073771641755
300.0132987254071
300.0191185597691
300.0247921004327
300.0301462533283
300.0346775609308
300.0375415769528
300.0384945643877
300.0385794096103
300.0385535700351
300.0384535458383
300.038168918174
300.0375956672446
300.0366141109898
300.0351091083909
300.0329794994106
300.0301514993948
300.0265904611521
300.0223098563322
300.0173755140938
300.0119015044497
300.006034560916
299.9999294485024
299.9937234968059
299.9875197135697
299.981389600238
299.9754193109673
299.9698424623545
299.9652563992378
299.9625349645578
299.9617290401917
299.9616738709244
299.9616912750014
299.9618019783108
299.9620831093314
299.9626431702409
299.9635908174046
299.9650337041936
299.9670667118055
299.9697613770036
299.9731545952133
299.9772399799156
299.9819649686637
299.9872345772152
299.9929216795258
299.9988846922549
300.0049912056863
300.0111380631079
300.0172512115765
300.0232455231363
300.0289154602284
300.0337399060646
300.0368566848791
300.0379597702233
300.0380774656205
300.0380591895457
300.0379837204208
300.0377565952743
300.0372876289514
300.0364700574647
300.0351975258068
300.0333706687489
300.0309077916349
300.0277546782546
300.023893480637
300.0193494883183
300.0141925095797
300.0085294565896
300.0024888322731
299.9962020097965
299.9897875254138
299.9833492385964
299.9770151233591
299.971063254257
299.9661342209768
299.9631520968604
299.962221234323
299.9621440827067
299.962155402158
299.9622421457804
299.962471425551
299.9629399187438
299.9637447255957
299.9649848852504
299.9667521878642
299.9691230482508
299.9721489585118
299.9758482317689
299.9802012844602
299.9851501186363
299.9906026113545
299.9964436249678
300.0025527266358
300.0088210385713
300.0151531908762
300.0214355674819
300.0274390879826
300.0326305731462
300.0361125404884
300.03745198398
300.0376258599342
300.037614315147
300.0375596698542
300.0373793344715
300.0369941160087
300.0363076515133
300.0352223067315
300.0336430863195
300.0314859780402
300.0286859108015
300.0252048519582
300.021039084532
300.016222952601
300.0108263431574
300.004946081062
299.9986938726061
299.9921845090753
299.9855340220358
299.9788941512163
299.9725694305941
299.9672250659675
299.9638487445382
299.9626910686645
299.9625688943686
299.9625756254717
299.9626425157383
299.9628285120846
299.9632205636038
299.9639069783488
299.9649796322688
299.9665263670861
299.9686245219431
299.9713332259075
299.9746864178246
299.9786878764022
299.9833085447663
299.9884871563589
299.9941366339801
300.0001564312619
300.00644487902
300.0129007269471
300.0193979286966
300.0257016450849
300.0312887104493
300.0352377542303
300.0369320304662
300.0372086701353
300.0372043421863
300.0371678127557
300.0370267739715
300.03671197211
300.0361348888596
300.0352053165405
300.0338331748569
300.0319350318982
300.0294403830991
300.0262985978779
300.0224857348393
300.0180090952487
300.0129075557591
300.0072477396729
300.0011172823172
299.9946172152884
299.9878615426759
299.9810075705038
299.9743603981935
299.9685737992473
299.9646846969359
299.9631749149618
299.9629679281379
299.9629691458055
299.9630181080032
299.9631659177254
299.9634917716456
299.9640769151685
299.9650070269464
299.9663658215285
299.9682298493689
299.9706622002263
299.973706744656
299.9773834739711
299.9816849447605
299.9865749863067
299.9919920321441
299.9978571104443
300.0040818991531
300.0105692756261
300.0171937343895
300.023731317222
300.0296945640393
300.0341741561784
300.036353186105
300.036807473287
300.0368185135961
300.0367959409277
300.0366885055989
300.0364341767995
300.0359510772706
300.0351550464709
300.0339604869495
300.0322856684302
300.0300576660858
300.027218190519
300.0237295228117
300.019579031059
300.0147810905856
300.009376424136
300.0034291313926
299.997022398063
299.990259533688
299.983290009206
299.9763986469856
299.9701927832044
299.9657154442174
299.9637144031909
299.9633535688441
299.963346985867
299.9633791465882
299.9634929366237
299.9637598268486
299.9642555842753
299.9650610305111
299.9662560861669
299.9679156744932
299.970104677117
299.9728732477616
299.9762525538203
299.9802509651464
299.9848519337949
299.9900153990232
299.9956824212542
300.0017798364422
300.0082201959416
300.0148871185735
300.0215786921336
300.0278621917198
300.0328829604231
300.0356608076085
300.0364018622027
300.0364480704448
300.0364352257442
300.0363567314238
300.0361555638036
300.0357549959118
300.0350759382732
300.0340365721279
300.0325572508754
300.0305643617422
300.0279952039909
300.0248030909817
300.0209613327507
300.0164655934834
300.0113351318345
300.005612653033
299.9993625423641
299.9926726795635
299.9856763356911
299.9786269057697
299.9720605894864
299.966975268436
299.9643497645842
299.9637349601247
299.9637088614405
299.9637426944329
299.9638368833607
299.9640582444963
299.9644733608804
299.9651572918477
299.9661872345891
299.9676395335988
299.969585409843
299.9720862998836
299.9751883376924
299.9789164392603
299.9832701907712
299.9882233783233
299.9937259869928
299.9997077031509
300.0060804026924
300.0127277754226
300.0194760805828
300.0259247812599
300.0313332708595
300.0346362465292
300.0356527024538
300.0357517244016
300.0356895833015
300.03555851202
300.0354200845184
300.0352071297075
300.0348304004767
300.034185149827
300.0331660971723
300.0316720195097
300.0296102318201
300.0269019149937
300.0234849850515
300.0193179800826
300.0143873862481
300.008713741144
300.0023499842075
299.9953704690489
299.9878988525899
299.9801772406553
299.9726625069574
299.9663139054236
299.9623696603543
299.9604925765998
299.9590232734996
299.9579555482085
299.9571006029969
299.9563699589083
299.9557853050606
299.955501147128
299.9556081452106
299.9561398200715
299.9572800694546
299.9591627339336
299.9618419821459
299.9653296026471
299.9696303644375
299.9747389795402
299.9806173454323
299.9871946673785
299.9943968033908
300.0021218032569
300.0101627928655
300.0181688134332
300.025419512779
300.0307346084874
300.0340646344718
300.0368966442594
300.0390816656426
300.0408560537438
300.0423911609459
300.0437214062001
300.04478190426
300.0454762008343
300.0455924150771
300.0450201668824
300.0437567549367
300.0416157521109
300.0384811772076
300.0342915151309
300.0290560446418
300.022842465855
300.0157481678804
300.007867087113
299.9993640970724
299.9905726860095
299.9819859307442
299.974464160999
299.9689795518833
299.965353064301
299.9624122292569
299.960287815873
299.9587766460825
299.9576665548099
299.9568474324558
299.9562825936623
299.9561245968209
299.9564655893031
299.9572742584155
299.9586838534337
299.9608070471396
299.9637522711458
299.9675793283223
299.9722833629024
299.9778156465488
299.9841057531038
299.9910716429916
299.9986033008049
300.0064600439039
300.0142380561693
300.0215005576832
300.0275404468179
300.0316315788443
300.0347785008226
300.0374032757875
300.0394907839088
300.0411589059389
300.0424848423474
300.0434922453592
300.0442036804777
300.0444301670829
300.0440559143154
300.0431070123072
300.0413901209956
300.0387370814994
300.0350348823386
300.0302594015863
300.0244454398806
300.0176633176386
300.0100212552463
300.00170579188
299.9930552318655
299.9845085669064
299.9766392804055
299.9703519604743
299.9660458482297
299.9627585626492
299.9601788145708
299.9583365135689
299.9570729475907
299.9562486049783
299.9557512850351
299.9556371820675
299.9559487099527
299.9566597787459
299.9578837144854
299.9597189659714
299.9622806833776
299.9656725991736
299.9699544324871
299.975121370346
299.9811093305039
299.9878164246647
299.9951158848353
300.0028048243879
300.0105172736806
300.0178189136254
300.0242815577715
300.0292499617437
300.0325999850983
300.0355540302575
300.0379258200801
300.039803037263
300.0412640175222
300.0423485947814
300.043087301254
300.0433799421941
300.0431398429224
300.0423680290991
300.0409334881012
300.0386800892855
300.0354702242333
300.0312093824958
300.0258572600696
300.0194538337088
300.0121257250293
300.0040550218339
299.9955282505655
299.9869676048733
299.9788543748442
299.9719033985403
299.9667769787746
299.9631605415635
299.9601954158991
299.9580242221016
299.9565382346856
299.9555821159938
299.9550269750638
299.954894033228
299.9551882494746
299.9558515500136
299.956960608863
299.9585902405411
299.9608560974154
299.9638830724189
299.9677596445608
299.972515299397
299.9781257576284
299.9845156764947
299.9915565825193
299.9990598169701
300.0067100370473
300.0140887323042
300.0208345621414
300.0264244669933
300.0303237525072
300.0334356651724
300.0360705697026
300.0381802980239
300.039823896039
300.0410427141929
300.0418588196897
300.04223889645
300.0421348829558
300.0415420329522
300.0403682823576
300.0384460273009
300.0356227114919
300.0317896940451
300.0268977270188
300.0209569507452
300.0140388959793
300.0062795263954
299.9979254466331
299.9893751178909
299.9810683205214
299.9735768917319
299.9676975829033
299.9635590843092
299.960289702678
299.9577497867566
299.9559767306299
299.9548362762109
299.9541708708328
299.953978285972
299.9542358019162
299.9548416105391
299.9558592217357
299.9573455677149
299.9593938409832
299.9621165011389
299.9656178270992
299.969969620287
299.9751887053072
299.9812233666353
299.9879593805969
299.9952347421222
300.0027955828144
300.0102479281421
300.0171915152771
300.0232480546511
300.0278879156331
300.0311300486229
300.0340108515652
300.0363343096028
300.0381656870366
300.0395513003822
300.040499073306
300.0410218899485
300.0410785000569
300.040647166148
300.0396842853607
300.0380206244649
300.0355321646813
300.0321204523494
300.027705170288
300.0222316095583
300.0157197790923
300.008297721368
300.0001826524348
299.9917067463136
299.9832881991277
299.9754106336409
299.9688205094526
299.9639697989958
299.9603994819431
299.9574785175046
299.955411006106
299.9540540264073
299.9532174822477
299.9529093522447
299.9531067975228
299.9536598925858
299.9546100728759
299.9559847603676
299.9578506245542
299.9603146591379
299.9634946211189
299.9674786150662
299.9723012085869
299.9779450149709
299.9843401822648
299.991354807425
299.9987747603345
300.0062499659994
300.0133722619963
300.019805111017
300.025051682266
300.0287258351107
300.0317547635897
300.0343090118101
300.036346173415
300.0379049077392
300.0390064287547
300.0396794757105
300.0398848876794
300.0396184883663
300.038881725072
300.0375104768604
300.0353633574346
300.0323272039659
300.0283085642131
300.0232483689891
300.017157436485
300.0101293682345
300.0023174630722
299.9939840336251
299.9855268757626
299.9773782503599
299.9701730796502
299.964604792797
299.9605734429635
299.9573217658108
299.954897876708
299.9532609067031
299.952227488175
299.9517899150741
299.9519017031692
299.9523872939722
299.9532632045662
299.9545390829023
299.9562632896752
299.9585239431051
299.9614271057403
299.9650666075569
299.9695062669199
299.974767107818
299.9808085097975
299.9875206339677
299.9947335694226
300.002166817477
300.0094212683584
300.0161341477232
300.0218956179315
300.0262482680689
300.0293864807978
300.0321667431922
300.0343762862197
300.036088467042
300.0373502599483
300.038177383025
300.0385430474565
300.0384667991505
300.0379500936319
300.0368446120277
300.0349969172984
300.0323001919416
300.0286732681275
300.0240530576194
300.0184079973944
300.0117696012331
300.0042584132739
299.9961096148009
299.9876866717178
299.9793795756489
299.9716934579343
299.9654105312906
299.9607776835584
299.9572130832707
299.954403940972
299.9524483688281
299.9511942003166
299.9505949085158
299.9505724676034
299.9509813591387
299.9517943501081
299.9529958089685
299.9546079257765
299.9566926187183
299.9593471762054
299.9626797175019
299.966773990582
299.971663001757
299.9773279414234
299.9837020552146
299.9906613977881
299.9979820686883
300.0052958637223
300.0122205414411
300.0184159843014
300.0233761493503
300.0268917958012
300.029831515998
300.0322494787899
300.0341309128553
300.0355400620779
300.0364922903975
300.0369915736984
300.0370777399721
300.036759411654
300.035929009524
300.0344158605676
300.032107129519
300.0289037344909
300.0247104358148
300.0194648651676
300.0131856473579
300.0059952745282
299.9980883650079
299.989754100858
299.9813543789462
299.9733329407993
299.966420226745
299.9611237294777
299.9571617064948
299.9539503314073
299.9516405372511
299.9501624307246
299.9493454738288
299.9491390090629
299.9494757440296
299.9502055766982
299.9513350449905
299.9528543871971
299.9548030151075
299.9572654493754
299.9603400623195
299.9641103898544
299.9686310261461
299.9739225450402
299.9799527517832
299.9866185927567
299.9937461337202
300.0010383086233
300.0081125219814
300.0146401343347
300.0201580549257
300.0242637310907
300.0273632718039
300.0299999479591
300.0320321037952
300.0335523860451
300.0346145688097
300.0352326356762
300.0354467631967
300.0353091409207
300.0347459970647
300.033566323384
300.0316347835196
300.0288396813215
300.0250740430189
300.0202626082019
300.0143980140928
300.0075576193503
299.9998840015431
299.9916361078119
299.9831911660035
299.9749385188834
299.9674796117625
299.961508408466
299.9570224071874
299.9534672957399
299.9507944118735
299.9490216582851
299.9479380011982
299.9475402722812
299.9477820479075
299.9484207745967
299.949478683332
299.9509286447125
299.952777641422
299.9550773203488
299.9579143570069
299.9613868108837
299.9655751604463
299.9705149036948
299.9761870151901
299.9825233931756
299.9894060388291
299.9966047302343
300.0037476774569
300.0104931815408
300.01648369599
300.0212085903767
300.0246359520485
300.0275118398809
300.0297625540243
300.0314231783029
300.0325839618514
300.0332692937581
300.0335316762318
300.0334890870991
300.0331160421362
300.0322368684261
300.0307058522867
300.0283831222208
300.0251283416392
300.0208257593663
300.0154139362493
300.0089175525087
300.0014694507133
299.9933277652001
299.9848604485417
299.9764158336102
299.9685182418614
299.9619319494427
299.9568669775307
299.9530022313103
299.9499807523756
299.9478770595789
299.9465343474825
299.9459232756173
299.9459796543457
299.9464982395236
299.9474660021381
299.9488449930847
299.9506250114595
299.9528231114136
299.9554969320968
299.9587289090299
299.9625980025461
299.9671607371878
299.9724473484733
299.9784426022667
299.9850547936908
299.99209842397
299.9992519674082
300.006160865694
300.0125097362014
300.0177905803776
300.0217028836987
300.0247940324164
300.0273095982901
300.0291654315211
300.0304677157284
300.0312515106992
300.0315453570973
300.0315111860439
300.0312091897954
300.0305106930348
300.0292901018415
300.0274073915282
300.0247077189088
300.0210307961918
300.0162315195694
300.0102332447201
300.0031059792947
299.9950676245642
299.986495209998
299.9777719510957
299.969444232026
299.9622912930384
299.9566530197944
299.9523447254904
299.9490567686987
299.9466241602761
299.9450505731431
299.9441810355342
299.9439463117291
299.9442169388428
299.9448852512672
299.945989193354
299.9475022421464
299.9493861451942
299.9516214596602
299.9542551281519
299.9574740523166
299.9616370549108
299.9672034533817
299.9744403059972
299.9832189592871
299.9918688229303
300.0006097748936
)
;

boundaryField
{
    inlet
    {
        type            fixedValue;
        value           uniform 300;
    }
    outlet
    {
        type            inletOutlet;
        inletValue      uniform 300;
        value           uniform 300.0009837773243;
    }
    frontAndBack
    {
        type            empty;
    }
}


// ************************************************************************* //
