/*--------------------------------*- C++ -*----------------------------------*\
| =========                 |                                                 |
| \\      /  F ield         | OpenFOAM: The Open Source CFD Toolbox           |
|  \\    /   O peration     | Version:  v2012                                 |
|   \\  /    A nd           | Website:  www.openfoam.com                      |
|    \\/     M anipulation  |                                                 |
\*---------------------------------------------------------------------------*/
FoamFile
{
    version     2.0;
    format      ascii;
    class       volVectorField;
    location    "0.011";
    object      U;
}
// * * * * * * * * * * * * * * * * * * * * * * * * * * * * * * * * * * * * * //

dimensions      [0 1 -1 0 0 0 0];


internalField   nonuniform List<vector> 
1000
(
(-0.002758127214918114 0 0)
(-0.03442096155824798 0 0)
(-0.04261287814209636 0 0)
(-0.05780781153839974 0 0)
(-0.07170302530795554 0 0)
(-0.08460766473021877 0 0)
(-0.09561645681566736 0 0)
(-0.1050290415815284 0 0)
(-0.1131209130401296 0 0)
(-0.1186249021202403 0 0)
(-0.1201779657591903 0 0)
(-0.120043874637803 0 0)
(-0.1191874919989901 0 0)
(-0.1166563493816759 0 0)
(-0.1118048419069834 0 0)
(-0.1044483496500303 0 0)
(-0.09486064426958221 0 0)
(-0.08346711189001259 0 0)
(-0.07062835433091595 0 0)
(-0.05659761039920046 0 0)
(-0.04157976314848507 0 0)
(-0.02579495554247405 0 0)
(-0.009506237574301579 0 0)
(0.006985363680161641 0 0)
(0.0233579608466137 0 0)
(0.03928609321063678 0 0)
(0.05447417123879687 0 0)
(0.06873068046934377 0 0)
(0.08204071877261465 0 0)
(0.09446781887788241 0 0)
(0.1056469849648129 0 0)
(0.113962067015596 0 0)
(0.1175153398965371 0 0)
(0.1179071608304876 0 0)
(0.1177895722869185 0 0)
(0.1171125566223036 0 0)
(0.1153079842767712 0 0)
(0.1117447724149954 0 0)
(0.1059281918362163 0 0)
(0.09762794187011041 0 0)
(0.08694592049471402 0 0)
(0.07425482877204975 0 0)
(0.06004947219921346 0 0)
(0.04479783401770061 0 0)
(0.02886507751714558 0 0)
(0.01252408900364102 0 0)
(-0.003985031428362165 0 0)
(-0.02040424015389136 0 0)
(-0.03646307845714832 0 0)
(-0.05194523004263124 0 0)
(-0.06675942183324331 0 0)
(-0.08091294158588067 0 0)
(-0.09425819100899362 0 0)
(-0.105878859268673 0 0)
(-0.1136204592827216 0 0)
(-0.1162834473547969 0 0)
(-0.116478534298532 0 0)
(-0.1163292288499123 0 0)
(-0.115725969829642 0 0)
(-0.1141480509853138 0 0)
(-0.1110918573953909 0 0)
(-0.1060749374098058 0 0)
(-0.09876372493386254 0 0)
(-0.08905311092522628 0 0)
(-0.07710021248019328 0 0)
(-0.06328246768780466 0 0)
(-0.04809751318085269 0 0)
(-0.03205281403878128 0 0)
(-0.0155886352933973 0 0)
(0.000952983550906435 0 0)
(0.01732576210580564 0 0)
(0.03336388318292189 0 0)
(0.04897414342859956 0 0)
(0.06413498625962191 0 0)
(0.07883540993593814 0 0)
(0.092792868403457 0 0)
(0.1048172408225957 0 0)
(0.1125490485129368 0 0)
(0.1150577264330411 0 0)
(0.1152232618216393 0 0)
(0.115135749376618 0 0)
(0.1146055075784195 0 0)
(0.1132809604925216 0 0)
(0.1106847538482153 0 0)
(0.10637310651547 0 0)
(0.09997474449509627 0 0)
(0.09126961940994112 0 0)
(0.08024115844064385 0 0)
(0.06709512863535873 0 0)
(0.0522290306135252 0 0)
(0.03615435745221617 0 0)
(0.01939887906513708 0 0)
(0.002425412251110345 0 0)
(-0.01441687597494899 0 0)
(-0.03091758226616643 0 0)
(-0.04700961502885043 0 0)
(-0.06272360762463262 0 0)
(-0.07803214922638382 0 0)
(-0.09248772588709352 0 0)
(-0.104609277481416 0 0)
(-0.1119443886742601 0 0)
(-0.1141027754900004 0 0)
(-0.1142319874228784 0 0)
(-0.1140977949314659 0 0)
(-0.1136155788003898 0 0)
(-0.1123725946730754 0 0)
(-0.1099793921761776 0 0)
(-0.1060209915034893 0 0)
(-0.1001406799562849 0 0)
(-0.0920925928438865 0 0)
(-0.08179510614448926 0 0)
(-0.06935881876419575 0 0)
(-0.0550804314445006 0 0)
(-0.03940205393196412 0 0)
(-0.02284004450298704 0 0)
(-0.005894652785799578 0 0)
(0.01103423104235343 0 0)
(0.02769594512617041 0 0)
(0.04399051325822972 0 0)
(0.05992169404797257 0 0)
(0.07546165126241831 0 0)
(0.09020344414232191 0 0)
(0.102730143312373 0 0)
(0.1105726538579658 0 0)
(0.1130591082162902 0 0)
(0.1132366061897612 0 0)
(0.1131727756692314 0 0)
(0.1127617345793683 0 0)
(0.1117262917113027 0 0)
(0.1096732199426461 0 0)
(0.1062201777125387 0 0)
(0.1010074234456594 0 0)
(0.09375201407671234 0 0)
(0.08429350612219376 0 0)
(0.0726344626059385 0 0)
(0.05895976248872823 0 0)
(0.0436208903770176 0 0)
(0.02708448372174655 0 0)
(0.009857770911743743 0 0)
(-0.007595102143929237 0 0)
(-0.02493108630542828 0 0)
(-0.04197092059389011 0 0)
(-0.05865905894232006 0 0)
(-0.07488521162323422 0 0)
(-0.09008994865061731 0 0)
(-0.10265771659867 0 0)
(-0.1101214685895207 0 0)
(-0.1122914477201951 0 0)
(-0.1124261855982148 0 0)
(-0.1123246211002896 0 0)
(-0.1119437153867408 0 0)
(-0.1109397880026602 0 0)
(-0.1089859732596076 0 0)
(-0.105720996175946 0 0)
(-0.1008096861273463 0 0)
(-0.09397833519784997 0 0)
(-0.08505774804915053 0 0)
(-0.07401680527341108 0 0)
(-0.06098129449871308 0 0)
(-0.04623241852132148 0 0)
(-0.03017621287710695 0 0)
(-0.01328017138052759 0 0)
(0.004008200427595436 0 0)
(0.02133264600839317 0 0)
(0.03846604466184806 0 0)
(0.05529466673644409 0 0)
(0.07169500791358691 0 0)
(0.08718575316353577 0 0)
(0.1003075327982948 0 0)
(0.1085902374040436 0 0)
(0.1113281276122164 0 0)
(0.1115648688321688 0 0)
(0.111524438640978 0 0)
(0.1112115934296768 0 0)
(0.1103958594374714 0 0)
(0.1087366071810399 0 0)
(0.1058972705345778 0 0)
(0.1015439598826492 0 0)
(0.09538522466889286 0 0)
(0.08720604334145038 0 0)
(0.07690490907281154 0 0)
(0.06452289454756191 0 0)
(0.05025247896770139 0 0)
(0.03442070259324184 0 0)
(0.01744827777048698 0 0)
(-0.0002136767240269274 0 0)
(-0.01816161899149606 0 0)
(-0.03610125859565344 0 0)
(-0.05383639334630112 0 0)
(-0.07111513688800757 0 0)
(-0.08724498238029849 0 0)
(-0.1004977110854128 0 0)
(-0.1083681664724448 0 0)
(-0.1107148088381102 0 0)
(-0.110884064354242 0 0)
(-0.1108053082294436 0 0)
(-0.1105031222506124 0 0)
(-0.1096842239087198 0 0)
(-0.1080651169496033 0 0)
(-0.1053242908998941 0 0)
(-0.1011505315098656 0 0)
(-0.09526881255303797 0 0)
(-0.08747395590679449 0 0)
(-0.07765983910780271 0 0)
(-0.06584252795830084 0 0)
(-0.05217297084293073 0 0)
(-0.03692942123844258 0 0)
(-0.02048194480384909 0 0)
(-0.003235401992943114 0 0)
(0.01443172165987499 0 0)
(0.03221503702103824 0 0)
(0.04989187079840127 0 0)
(0.06722289245101817 0 0)
(0.08362832634623973 0 0)
(0.09759416267362425 0 0)
(0.1066051490678411 0 0)
(0.1097813201137636 0 0)
(0.1101167278805758 0 0)
(0.1100925014276235 0 0)
(0.1098527254321911 0 0)
(0.1092030909661088 0 0)
(0.1078453411308976 0 0)
(0.1054803717250551 0 0)
(0.1017995760882054 0 0)
(0.09651642180279722 0 0)
(0.08939310635085515 0 0)
(0.08027196213221774 0 0)
(0.06910340444676079 0 0)
(0.05596199098980285 0 0)
(0.04104669632837364 0 0)
(0.0246640793242327 0 0)
(0.007189653949677442 0 0)
(-0.010991829903569 0 0)
(-0.02954226758500943 0 0)
(-0.04816968020745532 0 0)
(-0.06649882145092598 0 0)
(-0.0837113515654314 0 0)
(-0.09795829094531004 0 0)
(-0.106586544890793 0 0)
(-0.1092924996616077 0 0)
(-0.1095209476071232 0 0)
(-0.1094637141229921 0 0)
(-0.1092301123767301 0 0)
(-0.1085611277040333 0 0)
(-0.1072070646836023 0 0)
(-0.1048793132202031 0 0)
(-0.101291860627635 0 0)
(-0.09617890079125546 0 0)
(-0.08932089670852117 0 0)
(-0.08056904214419174 0 0)
(-0.06986825976726653 0 0)
(-0.05727482829283854 0 0)
(-0.04295968877195032 0 0)
(-0.02719046975415042 0 0)
(-0.01029573484134992 0 0)
(0.00737875919731962 0 0)
(0.02551179825826987 0 0)
(0.04382195704554624 0 0)
(0.06198879405023953 0 0)
(0.07936025214271392 0 0)
(0.09438433936311047 0 0)
(0.1044493132943379 0 0)
(0.1083124628492926 0 0)
(0.1088129454027937 0 0)
(0.1088050065069765 0 0)
(0.1086257402369484 0 0)
(0.1081118206520883 0 0)
(0.106996055018786 0 0)
(0.10501042296983 0 0)
(0.1018711358210895 0 0)
(0.09730407743898971 0 0)
(0.09106498806739691 0 0)
(0.08296523452717085 0 0)
(0.07289650869606118 0 0)
(0.06084878043349703 0 0)
(0.0469188751888638 0 0)
(0.0313074032407154 0 0)
(0.01429782815007924 0 0)
(-0.003783866510272017 0 0)
(-0.02261024338462838 0 0)
(-0.04185117116136885 0 0)
(-0.06106215026561737 0 0)
(-0.07935268801357898 0 0)
(-0.09480456311608519 0 0)
(-0.104574679191989 0 0)
(-0.1079328804443529 0 0)
(-0.1082891093165187 0 0)
(-0.1082502239865035 0 0)
(-0.1080717895169756 0 0)
(-0.1075284152813246 0 0)
(-0.106395532422788 0 0)
(-0.1044101573605329 0 0)
(-0.1013071363413136 0 0)
(-0.09683235824527567 0 0)
(-0.0907633776273828 0 0)
(-0.08292886785507571 0 0)
(-0.07322885339626727 0 0)
(-0.06165271565758696 0 0)
(-0.04828732689043901 0 0)
(-0.0333099384628158 0 0)
(-0.0169682419043638 0 0)
(0.0004477053203631965 0 0)
(0.01863751155462335 0 0)
(0.037305587199164 0 0)
(0.05609634001210104 0 0)
(0.07433675112058054 0 0)
(0.09050165536704834 0 0)
(0.1019162118295403 0 0)
(0.1068084833310084 0 0)
(0.1076080615072955 0 0)
(0.1076195091717506 0 0)
(0.1074914596803448 0 0)
(0.1070922132499836 0 0)
(0.1061796868344157 0 0)
(0.1045106051501228 0 0)
(0.1018219556173947 0 0)
(0.09785368045556961 0 0)
(0.09236346373518962 0 0)
(0.08514734345277156 0 0)
(0.07606020038033207 0 0)
(0.06503290633431408 0 0)
(0.05208454482278301 0 0)
(0.03732702443299286 0 0)
(0.02095593988840587 0 0)
(0.003226022567872367 0 0)
(-0.0155747285035044 0 0)
(-0.03511948004785851 0 0)
(-0.05494750829581666 0 0)
(-0.07417058591676715 0 0)
(-0.09090473974316068 0 0)
(-0.1021590802987987 0 0)
(-0.1065327129464132 0 0)
(-0.1071325753535148 0 0)
(-0.1071131190986946 0 0)
(-0.1069853196964721 0 0)
(-0.1065524766057979 0 0)
(-0.1056112078672939 0 0)
(-0.1039186567161003 0 0)
(-0.1012278865457658 0 0)
(-0.09729692368147377 0 0)
(-0.09190531526442949 0 0)
(-0.08486994296668625 0 0)
(-0.07606251385288357 0 0)
(-0.06542605101029779 0 0)
(-0.05298433682430279 0 0)
(-0.03884109697298493 0 0)
(-0.02317093709139214 0 0)
(-0.006203118776028724 0 0)
(0.01180130390065582 0 0)
(0.03056138544145338 0 0)
(0.04972257667927329 0 0)
(0.06863897989779319 0 0)
(0.08588876298780414 0 0)
(0.09883664128327828 0 0)
(0.1051334356564573 0 0)
(0.1064553497176457 0 0)
(0.1065002281343237 0 0)
(0.1064150200187478 0 0)
(0.1061141616721328 0 0)
(0.1053759959484881 0 0)
(0.1039789606859439 0 0)
(0.1016766048469113 0 0)
(0.0982218021700683 0 0)
(0.09337743126923541 0 0)
(0.08693281018390046 0 0)
(0.07872023648519179 0 0)
(0.06863028307715076 0 0)
(0.05662500035401672 0 0)
(0.04274622097713511 0 0)
(0.0271137987353544 0 0)
(0.009912996588352025 0 0)
(-0.008618819397346997 0 0)
(-0.02818335692715056 0 0)
(-0.04834355521693429 0 0)
(-0.06827382641817629 0 0)
(-0.08622376529708627 0 0)
(-0.09917937842376014 0 0)
(-0.104971972096317 0 0)
(-0.1060121428250441 0 0)
(-0.106023110577661 0 0)
(-0.1059405700980268 0 0)
(-0.1056065415735401 0 0)
(-0.1048358737410907 0 0)
(-0.1034017328866074 0 0)
(-0.1010715786379123 0 0)
(-0.09761447474702703 0 0)
(-0.09281424888959032 0 0)
(-0.08648246287072174 0 0)
(-0.07847326826269381 0 0)
(-0.06869761499652886 0 0)
(-0.05713263945219151 0 0)
(-0.0438247837316658 0 0)
(-0.02888773996984917 0 0)
(-0.01249389386480725 0 0)
(0.005141300081301967 0 0)
(0.02376694568691936 0 0)
(0.04305270683905666 0 0)
(0.06241286539368893 0 0)
(0.08058606686761481 0 0)
(0.09510053028157707 0 0)
(0.1031342429076712 0 0)
(0.1052864714480257 0 0)
(0.1054256072838115 0 0)
(0.1053714473678735 0 0)
(0.1051540429136146 0 0)
(0.1045684716850427 0 0)
(0.10341000057335 0 0)
(0.101446592949575 0 0)
(0.09844213796557795 0 0)
(0.09416532363517024 0 0)
(0.088403230855677 0 0)
(0.08097439849245393 0 0)
(0.07174169937456981 0 0)
(0.06062550295802308 0 0)
(0.04761431737693532 0 0)
(0.03276751160534763 0 0)
(0.01620998625950998 0 0)
(-0.001872175976874011 0 0)
(-0.02121992269085236 0 0)
(-0.04144086350492477 0 0)
(-0.06180661886006455 0 0)
(-0.08077917433018962 0 0)
(-0.09547572988552934 0 0)
(-0.1030712267616869 0 0)
(-0.1048748723909985 0 0)
(-0.1049756837784831 0 0)
(-0.1049611482571042 0 0)
(-0.1047416376526529 0 0)
(-0.1041409751216707 0 0)
(-0.1029348235730791 0 0)
(-0.1008965784993535 0 0)
(-0.09780478032247114 0 0)
(-0.09345662192494011 0 0)
(-0.08767781763915057 0 0)
(-0.08033255300192439 0 0)
(-0.07133064206787523 0 0)
(-0.06063006070372666 0 0)
(-0.04823721150471858 0 0)
(-0.03420680990206403 0 0)
(-0.01863864709952226 0 0)
(-0.001669049565018752 0 0)
(0.01652506105203453 0 0)
(0.03567632401531832 0 0)
(0.05533922211416255 0 0)
(0.07438788023775841 0 0)
(0.09063911192715546 0 0)
(0.1009275524178675 0 0)
(0.1046151068853006 0 0)
(0.1054971370469489 0 0)
(0.1058610777338971 0 0)
(0.1057014280452071 0 0)
(0.1050486435678917 0 0)
(0.1037307796715121 0 0)
(0.1015180438231175 0 0)
(0.09819819455787057 0 0)
(0.09360771399168431 0 0)
(0.0876206202234248 0 0)
(0.08013405427838891 0 0)
(0.07107106895020936 0 0)
(0.06039629048038229 0 0)
(0.04812543224765613 0 0)
(0.03431426781415318 0 0)
(0.01904916779212007 0 0)
(0.002459389431902187 0 0)
(-0.01528645933787753 0 0)
(-0.03388456692526887 0 0)
(-0.05268570139854078 0 0)
(-0.07044466056545769 0 0)
(-0.08434918803307283 0 0)
(-0.09083824948988176 0 0)
(-0.09169132190827939 0 0)
(-0.09040700588954767 0 0)
(-0.08781706036726429 0 0)
(-0.08448574083071438 0 0)
(-0.08078030310377442 0 0)
(-0.0767515441156754 0 0)
(-0.07204997098704329 0 0)
(-0.06671871683060036 0 0)
(-0.06097584484429276 0 0)
(-0.05437647877091093 0 0)
(-0.04669386464211529 0 0)
(-0.03787297717686874 0 0)
(-0.02793737787779831 0 0)
(-0.016919425172715 0 0)
(-0.004850727877618886 0 0)
(0.008230995586514217 0 0)
(0.02227961423943392 0 0)
(0.03724911417187757 0 0)
(0.05295605684035735 0 0)
(0.06884822031831055 0 0)
(0.08399801491964753 0 0)
(0.09634982538146997 0 0)
(0.1024165393789326 0 0)
(0.1030492357955548 0 0)
(0.1009873043410679 0 0)
(0.09684338502452622 0 0)
(0.09134987642052132 0 0)
(0.08515898921497593 0 0)
(0.07864069273009523 0 0)
(0.07203948252345298 0 0)
(0.06539946048464181 0 0)
(0.05741843430967579 0 0)
(0.04989796767017581 0 0)
(0.0418956091037547 0 0)
(0.03324901893568727 0 0)
(0.02366995785947047 0 0)
(0.01308969844643534 0 0)
(0.001598269910729806 0 0)
(-0.01074137388764327 0 0)
(-0.02398844949955223 0 0)
(-0.03825468995614943 0 0)
(-0.05339045698164138 0 0)
(-0.06873385247585426 0 0)
(-0.08315909711819115 0 0)
(-0.09439282040963201 0 0)
(-0.09978769523953301 0 0)
(-0.1006186671121039 0 0)
(-0.09918180678670072 0 0)
(-0.09581789416861668 0 0)
(-0.09111008006353287 0 0)
(-0.08573995109007157 0 0)
(-0.08018905247789145 0 0)
(-0.07460571048242415 0 0)
(-0.06808775347323853 0 0)
(-0.06159299978478129 0 0)
(-0.05463772132388155 0 0)
(-0.04710523501227804 0 0)
(-0.03876179026998147 0 0)
(-0.02938607550968399 0 0)
(-0.01883295227914543 0 0)
(-0.007083110761383032 0 0)
(0.005783270622485343 0 0)
(0.01965383810041296 0 0)
(0.03443377323933824 0 0)
(0.04996803054221147 0 0)
(0.0657048108612189 0 0)
(0.0805362958925548 0 0)
(0.09313899779341771 0 0)
(0.1016352732569019 0 0)
(0.1044806133608729 0 0)
(0.1037571280326584 0 0)
(0.1009835792616466 0 0)
(0.09637097806911858 0 0)
(0.09044993876829718 0 0)
(0.08373182669527014 0 0)
(0.07656576537350465 0 0)
(0.06926307656533841 0 0)
(0.06120150934353132 0 0)
(0.05326039369133475 0 0)
(0.04517614409595316 0 0)
(0.03680317386906316 0 0)
(0.02782413975574781 0 0)
(0.01799910740769792 0 0)
(0.007179998600496357 0 0)
(-0.004691150635272041 0 0)
(-0.01758192318471672 0 0)
(-0.03142464240937221 0 0)
(-0.04606562113255821 0 0)
(-0.06094480979997757 0 0)
(-0.07511438318355163 0 0)
(-0.08710513374979835 0 0)
(-0.09462054612747346 0 0)
(-0.09704146150482011 0 0)
(-0.09665112230212698 0 0)
(-0.09449581467793831 0 0)
(-0.09066159550491584 0 0)
(-0.08566650619810195 0 0)
(-0.08004788319208883 0 0)
(-0.07413954331178486 0 0)
(-0.06732122039650291 0 0)
(-0.06061869974062652 0 0)
(-0.05359429070042462 0 0)
(-0.04621094849031969 0 0)
(-0.03825940616901786 0 0)
(-0.02947128992927274 0 0)
(-0.01961749686391439 0 0)
(-0.008586167366347467 0 0)
(0.003637081000021216 0 0)
(0.01700138720268835 0 0)
(0.03137360535971463 0 0)
(0.04652725486638151 0 0)
(0.06199981743261096 0 0)
(0.07683601393476983 0 0)
(0.08990399955861447 0 0)
(0.09995913724707568 0 0)
(0.1050321945511265 0 0)
(0.1057084271307124 0 0)
(0.1040483213920725 0 0)
(0.1004367611104416 0 0)
(0.09520226946676531 0 0)
(0.08877804058624329 0 0)
(0.08149941995352789 0 0)
(0.07377525666074536 0 0)
(0.06549780324351831 0 0)
(0.05703282298696081 0 0)
(0.04876038485997707 0 0)
(0.04041590438927502 0 0)
(0.03168371232738183 0 0)
(0.02226261783209738 0 0)
(0.01199182147071328 0 0)
(0.0008020458977270443 0 0)
(-0.01136574797705049 0 0)
(-0.02453181167785945 0 0)
(-0.03858135725565819 0 0)
(-0.05304095237697075 0 0)
(-0.06704097050620651 0 0)
(-0.0795260496290726 0 0)
(-0.08870809519879379 0 0)
(-0.09289105507314367 0 0)
(-0.09351258505132137 0 0)
(-0.09228813797708157 0 0)
(-0.08928099368952339 0 0)
(-0.08483312639995794 0 0)
(-0.07950550616034154 0 0)
(-0.0736478241943694 0 0)
(-0.06672487959379464 0 0)
(-0.05983055569465304 0 0)
(-0.0526329098321758 0 0)
(-0.04515080298140625 0 0)
(-0.03726628410809256 0 0)
(-0.02878222823891807 0 0)
(-0.01946934886047494 0 0)
(-0.009124138847531367 0 0)
(0.002383009500674973 0 0)
(0.01506653079327811 0 0)
(0.02881693721974893 0 0)
(0.04342442453103279 0 0)
(0.05853343274537512 0 0)
(0.07340086427158238 0 0)
(0.08690288847107658 0 0)
(0.09795567547883188 0 0)
(0.1051856475745325 0 0)
(0.1075551350199977 0 0)
(0.1068479888438991 0 0)
(0.1042674880739136 0 0)
(0.09987398441338739 0 0)
(0.09397879649078132 0 0)
(0.08690797889459292 0 0)
(0.07906907386593902 0 0)
(0.07067629654111059 0 0)
(0.0616609521736856 0 0)
(0.05302046192346254 0 0)
(0.04436206153456291 0 0)
(0.03554997925421156 0 0)
(0.02636325167357206 0 0)
(0.01660882917304551 0 0)
(0.006085682938537557 0 0)
(-0.005387007327941497 0 0)
(-0.01784730976041451 0 0)
(-0.03117493821895986 0 0)
(-0.04506247181610731 0 0)
(-0.05883155932130411 0 0)
(-0.07158959598658371 0 0)
(-0.08193611508061185 0 0)
(-0.08791357716646291 0 0)
(-0.08966701639925848 0 0)
(-0.0891837035545628 0 0)
(-0.08705127005644323 0 0)
(-0.08331608301393276 0 0)
(-0.07843708086239597 0 0)
(-0.07278213218698859 0 0)
(-0.06593459318032993 0 0)
(-0.05892361018875697 0 0)
(-0.05157630760649826 0 0)
(-0.04395163960449601 0 0)
(-0.03601928540090385 0 0)
(-0.02764947940889573 0 0)
(-0.0186273406298526 0 0)
(-0.008743481934799903 0 0)
(0.002138879622521259 0 0)
(0.01408204349257794 0 0)
(0.02707966312528403 0 0)
(0.04101141993488894 0 0)
(0.05560339200272033 0 0)
(0.07028800290663098 0 0)
(0.08406347805191636 0 0)
(0.09590958766016396 0 0)
(0.1047680609342873 0 0)
(0.1090312781694632 0 0)
(0.1094848971331785 0 0)
(0.1078595708890046 0 0)
(0.1043211839946519 0 0)
(0.09906735974122963 0 0)
(0.09241589275951367 0 0)
(0.08472354094381239 0 0)
(0.07636952597080017 0 0)
(0.06689281686606541 0 0)
(0.05793491262423014 0 0)
(0.04896679949079864 0 0)
(0.0399739817572762 0 0)
(0.0307611579366051 0 0)
(0.02114362184448858 0 0)
(0.01095856307800507 0 0)
(7.788863715665428e-05 0 0)
(-0.011580582864093 0 0)
(-0.02404759793183072 0 0)
(-0.03721932004866266 0 0)
(-0.05058201595907132 0 0)
(-0.06330574743518202 0 0)
(-0.07437214192271861 0 0)
(-0.08201757037926587 0 0)
(-0.08514078323898254 0 0)
(-0.08541793623920553 0 0)
(-0.08407423146257982 0 0)
(-0.08102901224385677 0 0)
(-0.07665598316535575 0 0)
(-0.07136000917294671 0 0)
(-0.06483673840083604 0 0)
(-0.05780612163976523 0 0)
(-0.05039620456273085 0 0)
(-0.04265312236978164 0 0)
(-0.03460303407618092 0 0)
(-0.02619176008613222 0 0)
(-0.01728006971516723 0 0)
(-0.007706554537406683 0 0)
(0.002680528324707282 0 0)
(0.01400509265888046 0 0)
(0.02631476669826046 0 0)
(0.03953164584628529 0 0)
(0.05346024450298424 0 0)
(0.06772956088444065 0 0)
(0.08156399387235815 0 0)
(0.09393439065834328 0 0)
(0.1038653567401995 0 0)
(0.1100466289678385 0 0)
(0.1118969091210603 0 0)
(0.111120814088021 0 0)
(0.1085493035444786 0 0)
(0.1041290166534496 0 0)
(0.09809694369608626 0 0)
(0.09072153402424699 0 0)
(0.08234703910986473 0 0)
(0.07292086504148955 0 0)
(0.06345009413487307 0 0)
(0.05406047736337722 0 0)
(0.04467566486929201 0 0)
(0.03519146696106729 0 0)
(0.0255434284390743 0 0)
(0.01563497631364264 0 0)
(0.005291432585863623 0 0)
(-0.005694077489958638 0 0)
(-0.01742547066103394 0 0)
(-0.02983212626504804 0 0)
(-0.04257813581103201 0 0)
(-0.05504666666975877 0 0)
(-0.06647745330412505 0 0)
(-0.07534418891364436 0 0)
(-0.07994411713450976 0 0)
(-0.08107251644346344 0 0)
(-0.08041820099849213 0 0)
(-0.07818460295091371 0 0)
(-0.07439426239004052 0 0)
(-0.06949974742190712 0 0)
(-0.06343960722957927 0 0)
(-0.05647192557959288 0 0)
(-0.04913153281232419 0 0)
(-0.04136829405510959 0 0)
(-0.0332420510950527 0 0)
(-0.02477228262221267 0 0)
(-0.01588694687812842 0 0)
(-0.006453361990301895 0 0)
(0.003665006545091107 0 0)
(0.01455982350928626 0 0)
(0.02626977468181078 0 0)
(0.03878818439673989 0 0)
(0.05202702232970861 0 0)
(0.06574827410656903 0 0)
(0.0793787614369538 0 0)
(0.09197916884744831 0 0)
(0.1026840904769943 0 0)
(0.1104466633934238 0 0)
(0.1138929681016114 0 0)
(0.1141068302684073 0 0)
(0.1124776855019229 0 0)
(0.1089265042542676 0 0)
(0.1036199968101999 0 0)
(0.09677168428807741 0 0)
(0.08864142759097388 0 0)
(0.07945906210380893 0 0)
(0.06951258938459662 0 0)
(0.05976179719393328 0 0)
(0.04997990307402828 0 0)
(0.04017746024263251 0 0)
(0.03035715590216289 0 0)
(0.02045674048319973 0 0)
(0.01031579569726245 0 0)
(-0.0002397914896942474 0 0)
(-0.01128976132118981 0 0)
(-0.0228464864616627 0 0)
(-0.03483552190775767 0 0)
(-0.04684212611074589 0 0)
(-0.05821200724460443 0 0)
(-0.06784678890805464 0 0)
(-0.07392383414890163 0 0)
(-0.07611056748435098 0 0)
(-0.07612292628453181 0 0)
(-0.07460857104590525 0 0)
(-0.0713942191055338 0 0)
(-0.06698762189017902 0 0)
(-0.06158873160805337 0 0)
(-0.05469511590020604 0 0)
(-0.04757278026037842 0 0)
(-0.03986596484323277 0 0)
(-0.03173008266166543 0 0)
(-0.02323029804647223 0 0)
(-0.01433286896442543 0 0)
(-0.004954685091418678 0 0)
(0.00498634713431269 0 0)
(0.01555698323306991 0 0)
(0.02682171174038083 0 0)
(0.03881373781941246 0 0)
(0.05146438297400741 0 0)
(0.06459575963201121 0 0)
(0.07784741334258284 0 0)
(0.09047428269359131 0 0)
(0.1016234461245486 0 0)
(0.110415348685177 0 0)
(0.1155356334787469 0 0)
(0.1169107139255662 0 0)
(0.1161058992461403 0 0)
(0.1135470547856421 0 0)
(0.1091239834830052 0 0)
(0.1029938746340288 0 0)
(0.09533902569641667 0 0)
(0.08644038353408996 0 0)
(0.076315207599955 0 0)
(0.06626144602702604 0 0)
(0.05607319646716689 0 0)
(0.04580669842394479 0 0)
(0.03555604230407282 0 0)
(0.02538028867831508 0 0)
(0.01524276156545138 0 0)
(0.005030316905610469 0 0)
(-0.005412350300883835 0 0)
(-0.01623126048063608 0 0)
(-0.02747122634580329 0 0)
(-0.03884629298652038 0 0)
(-0.049868330148233 0 0)
(-0.05984589198719217 0 0)
(-0.0671190036094081 0 0)
(-0.07050127104900134 0 0)
(-0.07119147206284668 0 0)
(-0.07031896118565716 0 0)
(-0.06780587412531239 0 0)
(-0.06396721810020523 0 0)
(-0.05910715267086074 0 0)
(-0.05253610090584091 0 0)
(-0.04567158648601081 0 0)
(-0.03814611256785012 0 0)
(-0.03008646695679127 0 0)
(-0.02159373058178711 0 0)
(-0.01268962127014724 0 0)
(-0.003341534837377388 0 0)
(0.006504374125277329 0 0)
(0.01690486776968887 0 0)
(0.02789584443658746 0 0)
(0.0394716818680883 0 0)
(0.05158831699025639 0 0)
(0.06415793609887981 0 0)
(0.07696847893447734 0 0)
(0.08945143179190387 0 0)
(0.100787317928419 0 0)
(0.1102787630975705 0 0)
(0.116849043938554 0 0)
(0.1195030664325093 0 0)
(0.1195089047613167 0 0)
(0.1178546990502541 0 0)
(0.1143361498033085 0 0)
(0.1090778625252009 0 0)
(0.1021835732783236 0 0)
(0.09374509520695275 0 0)
(0.08395869901802382 0 0)
(0.07361579041272416 0 0)
(0.06304977670029105 0 0)
(0.05227504800988537 0 0)
(0.04149929277353911 0 0)
(0.03091317432820826 0 0)
(0.02057970569713834 0 0)
(0.01042604507092075 0 0)
(0.0002882049776197302 0 0)
(-0.009971274501416631 0 0)
(-0.02041528504972314 0 0)
(-0.03096260369254324 0 0)
(-0.04137898532782177 0 0)
(-0.05127223695118493 0 0)
(-0.05930626686083908 0 0)
(-0.06386038440400864 0 0)
(-0.06532529660797756 0 0)
(-0.06509963556803183 0 0)
(-0.06339253667393766 0 0)
(-0.06013285390055821 0 0)
(-0.05571418163068834 0 0)
(-0.04973341493619627 0 0)
(-0.04307254387729119 0 0)
(-0.03576413435598851 0 0)
(-0.02787617355417412 0 0)
(-0.01947430377161968 0 0)
(-0.01063051003676248 0 0)
(-0.001334296580044533 0 0)
(0.00845977849379673 0 0)
(0.01876605140595283 0 0)
(0.02956112680801078 0 0)
(0.04082863974789937 0 0)
(0.05256513124962604 0 0)
(0.06470181919848597 0 0)
(0.07706567656561873 0 0)
(0.08928160621497247 0 0)
(0.1006526287517979 0 0)
(0.110530993452619 0 0)
(0.1181154829882072 0 0)
(0.1221295402830789 0 0)
(0.1230156318270496 0 0)
(0.1221286351292958 0 0)
(0.1195227768573748 0 0)
(0.1151650923797468 0 0)
(0.1091606491358261 0 0)
(0.1014480085729274 0 0)
(0.09218631773293914 0 0)
(0.08198008350366225 0 0)
(0.07129178747819098 0 0)
(0.06011975161427843 0 0)
(0.04875061545833638 0 0)
(0.03749680207908868 0 0)
(0.0265708137088278 0 0)
(0.01605402670360101 0 0)
(0.0059222345060495 0 0)
(-0.003901463060778873 0 0)
(-0.01355680577292524 0 0)
(-0.02321068342752135 0 0)
(-0.03282541279780658 0 0)
(-0.04222095689586146 0 0)
(-0.05054757014427193 0 0)
(-0.05615073934186959 0 0)
(-0.05863976596099139 0 0)
(-0.05917245357070274 0 0)
(-0.05824281346144125 0 0)
(-0.05560765098775794 0 0)
(-0.05169274487519926 0 0)
(-0.04652635099694327 0 0)
(-0.03995262245741512 0 0)
(-0.0329315808112193 0 0)
(-0.02528145788468131 0 0)
(-0.01706708045968972 0 0)
(-0.00835186671891178 0 0)
(0.0008555633174431512 0 0)
(0.0105612193167577 0 0)
(0.02076796045779794 0 0)
(0.03146742348798993 0 0)
(0.04262651960192624 0 0)
(0.05416373188434868 0 0)
(0.06595422143497251 0 0)
(0.07787530483540817 0 0)
(0.08974069027098895 0 0)
(0.1010187119576256 0 0)
(0.1110725345453523 0 0)
(0.1193401990948461 0 0)
(0.1246934808825801 0 0)
(0.126601343065843 0 0)
(0.1263561595901117 0 0)
(0.1245104505532707 0 0)
(0.1209020023622289 0 0)
(0.1157334657219771 0 0)
(0.1089422206024947 0 0)
(0.1004127126372136 0 0)
(0.09077454612989175 0 0)
(0.08035770040794263 0 0)
(0.06913126102394183 0 0)
(0.05737141330809208 0 0)
(0.04544070936783042 0 0)
(0.03366499517320176 0 0)
(0.02230643231266785 0 0)
(0.01158445842758751 0 0)
(0.001633675954334724 0 0)
(-0.007586683692775296 0 0)
(-0.01632776176146064 0 0)
(-0.02471824852009289 0 0)
(-0.03296115584825397 0 0)
(-0.04084979357983824 0 0)
(-0.04697726634493432 0 0)
(-0.05054899203477595 0 0)
(-0.05201983392551924 0 0)
(-0.05192264342865235 0 0)
(-0.05014286928991964 0 0)
(-0.04687896439797398 0 0)
(-0.04243678625728662 0 0)
(-0.03608570458669359 0 0)
(-0.02931778549694428 0 0)
(-0.021800117072478 0 0)
(-0.01365661056711471 0 0)
(-0.005052932151354665 0 0)
(0.003951493072563317 0 0)
(0.01337769802066614 0 0)
(0.02330187366825721 0 0)
(0.03378706819608098 0 0)
(0.04482789087528623 0 0)
(0.05634605327391248 0 0)
(0.06809385726331861 0 0)
(0.08015638870645928 0 0)
(0.09079911849172373 0 0)
(0.1073113559974549 0 0)
)
;

boundaryField
{
    inlet
    {
        type            zeroGradient;
    }
    outlet
    {
        type            pressureInletOutletVelocity;
        value           uniform (0.1073113559974549 0 0);
    }
    frontAndBack
    {
        type            empty;
    }
}


// ************************************************************************* //
