/*--------------------------------*- C++ -*----------------------------------*\
| =========                 |                                                 |
| \\      /  F ield         | OpenFOAM: The Open Source CFD Toolbox           |
|  \\    /   O peration     | Version:  v2012                                 |
|   \\  /    A nd           | Website:  www.openfoam.com                      |
|    \\/     M anipulation  |                                                 |
\*---------------------------------------------------------------------------*/
FoamFile
{
    version     2.0;
    format      ascii;
    class       volVectorField;
    location    "0.011";
    object      UMean;
}
// * * * * * * * * * * * * * * * * * * * * * * * * * * * * * * * * * * * * * //

dimensions      [0 1 -1 0 0 0 0];


internalField   nonuniform List<vector> 
1000
(
(-2.972462982597873e-05 0 0)
(3.244978538796812e-06 0 0)
(2.239308702312826e-05 0 0)
(5.87030561415209e-05 0 0)
(0.0001012962090425249 0 0)
(0.0001473401784326707 0 0)
(0.0002056939203407908 0 0)
(0.000268130583650056 0 0)
(0.0003405585957991667 0 0)
(0.0004166931390544333 0 0)
(0.0004957833602138115 0 0)
(0.0005744712796554218 0 0)
(0.0006527529217037562 0 0)
(0.0007299965983207096 0 0)
(0.0008049971643477664 0 0)
(0.000876256323012326 0 0)
(0.0009420234142474 0 0)
(0.001001110707761738 0 0)
(0.001052310491802149 0 0)
(0.001094847208378061 0 0)
(0.001127972123044616 0 0)
(0.00115101433366887 0 0)
(0.001163659989636771 0 0)
(0.001165512445887313 0 0)
(0.001156682020220271 0 0)
(0.001137159000374204 0 0)
(0.001107507755265468 0 0)
(0.001068089963720053 0 0)
(0.001019677678902895 0 0)
(0.0009626921362291818 0 0)
(0.0008979056003347217 0 0)
(0.0008263177399266778 0 0)
(0.0007505427144773227 0 0)
(0.0006734089127139767 0 0)
(0.000596319577657119 0 0)
(0.00051943249090467 0 0)
(0.0004433284580044176 0 0)
(0.0003688547486186327 0 0)
(0.0002973311881692767 0 0)
(0.0002302517186785203 0 0)
(0.0001692527854337991 0 0)
(0.0001157406102517677 0 0)
(7.093754052226669e-05 0 0)
(3.56649888935008e-05 0 0)
(1.055900123697149e-05 0 0)
(-4.036952340997449e-06 0 0)
(-7.880897902307037e-06 0 0)
(-9.615070310230054e-07 0 0)
(1.662255130849997e-05 0 0)
(4.454689851910108e-05 0 0)
(8.243747725573543e-05 0 0)
(0.0001298329725642538 0 0)
(0.0001863305741966243 0 0)
(0.0002512194472154173 0 0)
(0.0003228839334641459 0 0)
(0.0003982314015088805 0 0)
(0.0004744635488839943 0 0)
(0.0005506500306266309 0 0)
(0.0006266499630965209 0 0)
(0.0007019255216892356 0 0)
(0.000775839108882883 0 0)
(0.0008471561159977522 0 0)
(0.0009146576110761437 0 0)
(0.0009766668886465539 0 0)
(0.001031794645603256 0 0)
(0.001078544964814015 0 0)
(0.001115967345005256 0 0)
(0.001143166898105787 0 0)
(0.001159835225813545 0 0)
(0.001165649670338629 0 0)
(0.001160766466624253 0 0)
(0.001145182973281503 0 0)
(0.001119298250186691 0 0)
(0.001083250811975802 0 0)
(0.001037465312404061 0 0)
(0.0009821204046739961 0 0)
(0.0009181112549766008 0 0)
(0.0008471402572358022 0 0)
(0.0007726232843141905 0 0)
(0.0006971982922888023 0 0)
(0.0006218586868025202 0 0)
(0.0005466650259516353 0 0)
(0.0004720585659159005 0 0)
(0.0003986385888572026 0 0)
(0.0003273921739604918 0 0)
(0.0002594987249349379 0 0)
(0.0001964304178523684 0 0)
(0.0001396428470209868 0 0)
(9.065447928205852e-05 0 0)
(5.069020185178336e-05 0 0)
(2.078320235696153e-05 0 0)
(1.542727508570493e-06 0 0)
(-6.659778322908026e-06 0 0)
(-3.837016680665467e-06 0 0)
(9.946074968206226e-06 0 0)
(3.43819696555338e-05 0 0)
(6.928541297799224e-05 0 0)
(0.0001143519599116363 0 0)
(0.0001693014548579174 0 0)
(0.000233220623539219 0 0)
(0.0003039869604091257 0 0)
(0.0003780607665923566 0 0)
(0.0004528331496856461 0 0)
(0.0005275370379046075 0 0)
(0.0006021299120778014 0 0)
(0.0006761048202583264 0 0)
(0.0007490563769683443 0 0)
(0.0008199292159455018 0 0)
(0.0008877952043388509 0 0)
(0.0009511443455918146 0 0)
(0.001008725506884084 0 0)
(0.001058906466869934 0 0)
(0.001100554009398375 0 0)
(0.001132394774839232 0 0)
(0.001153852747280436 0 0)
(0.001164278436816229 0 0)
(0.001163729138666509 0 0)
(0.00115208442251826 0 0)
(0.001129745475220341 0 0)
(0.001096746919412726 0 0)
(0.001053503093127177 0 0)
(0.001000139352638152 0 0)
(0.0009376830004449116 0 0)
(0.0008680252037236657 0 0)
(0.0007948181108756876 0 0)
(0.0007206872738081134 0 0)
(0.0006466565965002192 0 0)
(0.0005726982339752113 0 0)
(0.0004992329903202475 0 0)
(0.000426668678734157 0 0)
(0.0003558682306106172 0 0)
(0.0002877425248036408 0 0)
(0.000223616891760982 0 0)
(0.0001647695203450956 0 0)
(0.0001127405506821061 0 0)
(6.881771351765622e-05 0 0)
(3.433079137898227e-05 0 0)
(1.014101357505852e-05 0 0)
(-3.001859634351013e-06 0 0)
(-4.878257639650765e-06 0 0)
(4.677401736248349e-06 0 0)
(2.54384228234054e-05 0 0)
(5.731466791616597e-05 0 0)
(9.995079540838182e-05 0 0)
(0.0001530619634834245 0 0)
(0.0002155243680958948 0 0)
(0.0002850689394817542 0 0)
(0.0003579331842588458 0 0)
(0.0004315389513689998 0 0)
(0.0005050686477939391 0 0)
(0.0005785292610670244 0 0)
(0.0006514725623116061 0 0)
(0.000723606869606344 0 0)
(0.0007940088000013832 0 0)
(0.000861944695025328 0 0)
(0.0009260482761241839 0 0)
(0.0009852394164703334 0 0)
(0.001037920078287691 0 0)
(0.001082957007183326 0 0)
(0.001118904562817034 0 0)
(0.001144970247679314 0 0)
(0.001160202875804981 0 0)
(0.001164387829011689 0 0)
(0.001157152753270217 0 0)
(0.001138749474262517 0 0)
(0.001109113192839171 0 0)
(0.001068668799820984 0 0)
(0.001017558789098311 0 0)
(0.0009569246696360604 0 0)
(0.0008887224185313536 0 0)
(0.0008167444625266615 0 0)
(0.0007437168059645717 0 0)
(0.0006707821124495817 0 0)
(0.0005978644688399289 0 0)
(0.0005253604317326142 0 0)
(0.0004535515875192106 0 0)
(0.0003832056243092551 0 0)
(0.0003150512155805522 0 0)
(0.0002502861268603836 0 0)
(0.0001900162538848823 0 0)
(0.0001357269046596355 0 0)
(8.865208206014422e-05 0 0)
(5.024885594742876e-05 0 0)
(2.151922704911631e-05 0 0)
(3.521332963657152e-06 0 0)
(-3.271373240165925e-06 0 0)
(1.631115124304596e-06 0 0)
(1.820073856750276e-05 0 0)
(4.65255948387549e-05 0 0)
(8.628585896721428e-05 0 0)
(0.0001371908951200176 0 0)
(0.0001979749505674762 0 0)
(0.0002662243925114873 0 0)
(0.0003379815735259812 0 0)
(0.0004105726798625431 0 0)
(0.000483086777118775 0 0)
(0.0005555853491506457 0 0)
(0.0006276305469864803 0 0)
(0.0006990420639796315 0 0)
(0.0007689791984375377 0 0)
(0.0008368570394016196 0 0)
(0.0009014376076075567 0 0)
(0.0009617772339054672 0 0)
(0.001016367324748212 0 0)
(0.0010641189211532 0 0)
(0.001103534772059412 0 0)
(0.001133703661270727 0 0)
(0.001153465785181419 0 0)
(0.001162375322442181 0 0)
(0.001159777665653601 0 0)
(0.001145721117729213 0 0)
(0.001119938347921213 0 0)
(0.001082782218257041 0 0)
(0.001034352668669155 0 0)
(0.0009758264369537491 0 0)
(0.0009092024022472234 0 0)
(0.0008383921551767227 0 0)
(0.0007663375305513977 0 0)
(0.0006943468827822361 0 0)
(0.0006223366572301098 0 0)
(0.0005506826504294202 0 0)
(0.00047956266864342 0 0)
(0.0004096766632703977 0 0)
(0.000341606766938463 0 0)
(0.0002764495606882486 0 0)
(0.0002151527427757069 0 0)
(0.0001591244985995303 0 0)
(0.0001095198706837194 0 0)
(6.782431601004479e-05 0 0)
(3.511143823496546e-05 0 0)
(1.26241921943537e-05 0 0)
(1.055497214622314e-06 0 0)
(1.184371432657586e-06 0 0)
(1.3222153410151e-05 0 0)
(3.750298398901463e-05 0 0)
(7.383308754242292e-05 0 0)
(0.000122015168475759 0 0)
(0.0001807530756395979 0 0)
(0.0002475608906002569 0 0)
(0.0003182635905314757 0 0)
(0.0003899540582145679 0 0)
(0.0004615835518674716 0 0)
(0.0005332236897654045 0 0)
(0.000604476574805573 0 0)
(0.0006752263681408783 0 0)
(0.0007447110133443246 0 0)
(0.0008124580607918235 0 0)
(0.0008773343675767802 0 0)
(0.0009385222926805744 0 0)
(0.0009946037505341352 0 0)
(0.001044559913892411 0 0)
(0.001086896934417283 0 0)
(0.001120655775349854 0 0)
(0.001144547669640013 0 0)
(0.001157943487567119 0 0)
(0.00115996487173742 0 0)
(0.001150425373022942 0 0)
(0.001128856369755504 0 0)
(0.001095447988269069 0 0)
(0.001050187464063969 0 0)
(0.0009941824559965369 0 0)
(0.0009293729901551281 0 0)
(0.0008597657871437705 0 0)
(0.0007886072117772473 0 0)
(0.0007174683393623727 0 0)
(0.0006462801910011946 0 0)
(0.0005753958738484511 0 0)
(0.0005049222196796005 0 0)
(0.000435496051903317 0 0)
(0.0003675875133452969 0 0)
(0.0003021972973882147 0 0)
(0.000240149175609855 0 0)
(0.0001827590814649244 0 0)
(0.0001310994038547486 0 0)
(8.663492914045613e-05 0 0)
(5.046070278186986e-05 0 0)
(2.393008321791458e-05 0 0)
(7.889148009932305e-06 0 0)
(3.347127692077551e-06 0 0)
(1.07410956450074e-05 0 0)
(3.06563354932558e-05 0 0)
(6.308492994708869e-05 0 0)
(0.0001079993522621842 0 0)
(0.0001642000656493128 0 0)
(0.0002292578694022101 0 0)
(0.0002988479034611269 0 0)
(0.0003697026859693371 0 0)
(0.0004405344143886003 0 0)
(0.0005113951500757112 0 0)
(0.0005819298440973315 0 0)
(0.0006520625915065514 0 0)
(0.0007211129267102593 0 0)
(0.0007886815890304525 0 0)
(0.0008537417861099657 0 0)
(0.0009155685210659186 0 0)
(0.0009728402318734542 0 0)
(0.001024608157783659 0 0)
(0.001069416160322929 0 0)
(0.00110629443466478 0 0)
(0.00113388472966696 0 0)
(0.001151431947348826 0 0)
(0.001157890494450591 0 0)
(0.001152869848385613 0 0)
(0.001135704915536329 0 0)
(0.001106392156479186 0 0)
(0.001064768461299202 0 0)
(0.001011758634819409 0 0)
(0.0009491417718577506 0 0)
(0.0008808825657590179 0 0)
(0.0008106028127230548 0 0)
(0.000740244944684122 0 0)
(0.0006698169603173702 0 0)
(0.0005996474387727091 0 0)
(0.0005297840671723401 0 0)
(0.0004608128689697372 0 0)
(0.0003931084565156003 0 0)
(0.0003275965302448255 0 0)
(0.0002649858681646419 0 0)
(0.0002065175036170555 0 0)
(0.0001531675697594627 0 0)
(0.0001063676058662939 0 0)
(6.71942144123112e-05 0 0)
(3.706024303777828e-05 0 0)
(1.691210102588346e-05 0 0)
(7.923535106570059e-06 0 0)
(1.072633199917798e-05 0 0)
(2.61213415213079e-05 0 0)
(5.430771054249035e-05 0 0)
(9.546364495095044e-05 0 0)
(0.0001485959422648746 0 0)
(0.0002114971467638299 0 0)
(0.0002798144691556608 0 0)
(0.0003498520349385041 0 0)
(0.0004199348671076311 0 0)
(0.0004900675658541114 0 0)
(0.0005599219200421966 0 0)
(0.000629468611614493 0 0)
(0.0006980848794774762 0 0)
(0.0007654436183277837 0 0)
(0.0008305978749220301 0 0)
(0.0008929093758312527 0 0)
(0.0009511426787607925 0 0)
(0.001004419340411166 0 0)
(0.001051335372096237 0 0)
(0.001090928800588824 0 0)
(0.00112181804683987 0 0)
(0.001143162617071133 0 0)
(0.001153802889953622 0 0)
(0.001153180746315539 0 0)
(0.001140467124395507 0 0)
(0.001115468267555231 0 0)
(0.00107785028961107 0 0)
(0.00102829972800844 0 0)
(0.0009683186144178006 0 0)
(0.0009016659381766986 0 0)
(0.0008323069065104392 0 0)
(0.0007626808416820116 0 0)
(0.0006929777303147282 0 0)
(0.0006234797505302807 0 0)
(0.0005542172891528469 0 0)
(0.0004856922624184029 0 0)
(0.0004182419849721161 0 0)
(0.0003526821100408996 0 0)
(0.0002896681069090627 0 0)
(0.0002303259400427312 0 0)
(0.0001755829967313905 0 0)
(0.0001267899437169196 0 0)
(8.501877842332355e-05 0 0)
(5.167818339501192e-05 0 0)
(2.779351566309876e-05 0 0)
(1.463454070624136e-05 0 0)
(1.299475865673447e-05 0 0)
(2.384228959910349e-05 0 0)
(4.757801107391172e-05 0 0)
(8.458814103902239e-05 0 0)
(0.0001341590871553269 0 0)
(0.0001944304236752054 0 0)
(0.0002612184474237317 0 0)
(0.000330396989623148 0 0)
(0.0003997653747696458 0 0)
(0.0004691942977329896 0 0)
(0.0005383982081217083 0 0)
(0.0006073668078677818 0 0)
(0.0006755518330729005 0 0)
(0.0007426621494600032 0 0)
(0.00080784865335177 0 0)
(0.0008705183200894833 0 0)
(0.0009295421104781842 0 0)
(0.0009840786030091619 0 0)
(0.001032809587417466 0 0)
(0.001074769265078337 0 0)
(0.001108603369847577 0 0)
(0.001133396949283423 0 0)
(0.001147938195793312 0 0)
(0.001151522071426609 0 0)
(0.001143208192923595 0 0)
(0.001122619057906027 0 0)
(0.001089265060381255 0 0)
(0.001043564582562804 0 0)
(0.0009866751129431284 0 0)
(0.0009219851092438978 0 0)
(0.0008536627815129053 0 0)
(0.0007847565147499102 0 0)
(0.0007157487766009438 0 0)
(0.0006469106510004331 0 0)
(0.0005782353793235877 0 0)
(0.0005101749630292933 0 0)
(0.0004430064587761654 0 0)
(0.0003774784802844545 0 0)
(0.0003141714802647556 0 0)
(0.0002541365281831219 0 0)
(0.0001982285333009218 0 0)
(0.0001477389879426 0 0)
(0.0001037003249558295 0 0)
(6.751275661184478e-05 0 0)
(4.023080855140354e-05 0 0)
(2.319257445648288e-05 0 0)
(1.730199236128085e-05 0 0)
(2.36633109981748e-05 0 0)
(4.285324088537546e-05 0 0)
(7.545421430432082e-05 0 0)
(0.0001210486679940529 0 0)
(0.0001782228387564792 0 0)
(0.0002431324726397498 0 0)
(0.0003113652289224855 0 0)
(0.00038003891788016 0 0)
(0.000448774498920295 0 0)
(0.0005173054192786215 0 0)
(0.0005856539175196487 0 0)
(0.000653338483923239 0 0)
(0.0007201314638135084 0 0)
(0.00078527317528717 0 0)
(0.0008482393609462816 0 0)
(0.0009079806432639854 0 0)
(0.0009637061659198888 0 0)
(0.001014149386191099 0 0)
(0.001058326158334158 0 0)
(0.001094858576112534 0 0)
(0.001122811616630653 0 0)
(0.001140834410236195 0 0)
(0.00114812252114658 0 0)
(0.001143800922119838 0 0)
(0.001127294357489083 0 0)
(0.001098032936479778 0 0)
(0.001056168858413485 0 0)
(0.001002885536335104 0 0)
(0.0009405835468670885 0 0)
(0.0008739511011793248 0 0)
(0.00080649204355252 0 0)
(0.0007389765071295993 0 0)
(0.0006715707040328261 0 0)
(0.0006043363799362795 0 0)
(0.0005375079982851793 0 0)
(0.0004709988301556624 0 0)
(0.0004055969392387037 0 0)
(0.000341670852943472 0 0)
(0.0002799831797403898 0 0)
(0.0002214108122063833 0 0)
(0.0001674060094945101 0 0)
(0.0001190287561658135 0 0)
(7.765233996710469e-05 0 0)
(4.491784951529378e-05 0 0)
(2.233743672425205e-05 0 0)
(1.086875373589847e-05 0 0)
(1.209953973043166e-05 0 0)
(2.671012631373101e-05 0 0)
(5.570286770156518e-05 0 0)
(9.937041831461878e-05 0 0)
(0.0001567674895823953 0 0)
(0.0002240445756845742 0 0)
(0.0002970369254919174 0 0)
(0.0003730579602818458 0 0)
(0.0004520406468973347 0 0)
(0.0005326079292956841 0 0)
(0.000614749551149362 0 0)
(0.0006983521442284645 0 0)
(0.0007826983931170457 0 0)
(0.0008677213236206465 0 0)
(0.0009511455774898493 0 0)
(0.00103361135716081 0 0)
(0.001112970823738757 0 0)
(0.00118821975278651 0 0)
(0.001257707710202612 0 0)
(0.001319840954107378 0 0)
(0.001373044993948791 0 0)
(0.001416252530958882 0 0)
(0.001447777320167857 0 0)
(0.00146581929015939 0 0)
(0.00147109544670958 0 0)
(0.00146014517158328 0 0)
(0.001433960747913365 0 0)
(0.00139347685809746 0 0)
(0.001340543744847137 0 0)
(0.001279075381217919 0 0)
(0.001211633386863796 0 0)
(0.00113946782485673 0 0)
(0.001063625437132225 0 0)
(0.0009842403585237514 0 0)
(0.000902434801944194 0 0)
(0.0008177885097025046 0 0)
(0.0007326809045634098 0 0)
(0.000645738756978057 0 0)
(0.0005597409671830599 0 0)
(0.0004750339608169397 0 0)
(0.0003937733499631264 0 0)
(0.0003173756512035457 0 0)
(0.0002480217132374644 0 0)
(0.0001870412725348941 0 0)
(0.00013750852307978 0 0)
(0.0001001956271078558 0 0)
(7.712007787284657e-05 0 0)
(6.929355653210408e-05 0 0)
(7.72860690940074e-05 0 0)
(0.0001027183663069357 0 0)
(0.0001437446619244718 0 0)
(0.0001971209794992578 0 0)
(0.0002591436137490969 0 0)
(0.0003274954448345306 0 0)
(0.0004007230503201812 0 0)
(0.0004778745802116193 0 0)
(0.0005573494812229255 0 0)
(0.000638899449552445 0 0)
(0.00072160516719613 0 0)
(0.0008065418197219585 0 0)
(0.0008878124451967127 0 0)
(0.0009696143192343949 0 0)
(0.001049648647020459 0 0)
(0.001126385042778378 0 0)
(0.001198507184372301 0 0)
(0.001264262428269674 0 0)
(0.001321789592274423 0 0)
(0.001369957850394087 0 0)
(0.001407090593608604 0 0)
(0.001431520787078683 0 0)
(0.001442682824132082 0 0)
(0.00143842563226615 0 0)
(0.001419653163625214 0 0)
(0.001386874807799402 0 0)
(0.001340874565804603 0 0)
(0.001284771107618495 0 0)
(0.001221743431142081 0 0)
(0.001152866680035578 0 0)
(0.001080100897840381 0 0)
(0.00100336992087134 0 0)
(0.000923747396260051 0 0)
(0.000842135230217955 0 0)
(0.000758875754556587 0 0)
(0.0006749002849372178 0 0)
(0.0005892916180047787 0 0)
(0.0005066657458348778 0 0)
(0.0004261256218364357 0 0)
(0.0003499102884865504 0 0)
(0.0002797189338412013 0 0)
(0.0002173462138705876 0 0)
(0.0001649425931838252 0 0)
(0.0001245861763548784 0 0)
(9.772182780097772e-05 0 0)
(8.599164248732087e-05 0 0)
(8.895727174827373e-05 0 0)
(0.0001092550129790288 0 0)
(0.00014623755198244 0 0)
(0.0001958541686593582 0 0)
(0.0002559948729067272 0 0)
(0.0003231859287645239 0 0)
(0.0003960202283383105 0 0)
(0.0004734158935402862 0 0)
(0.0005540788738054517 0 0)
(0.0006366406322499521 0 0)
(0.0007212245930812813 0 0)
(0.0008055632795942519 0 0)
(0.0008915932370575515 0 0)
(0.0009702389281265514 0 0)
(0.001052749816569006 0 0)
(0.00113093404417027 0 0)
(0.001205700979651081 0 0)
(0.001274701245916767 0 0)
(0.001336665892183291 0 0)
(0.001389313269457698 0 0)
(0.001431995646807647 0 0)
(0.001462473038556006 0 0)
(0.001479853509639316 0 0)
(0.001482303817376945 0 0)
(0.001470248913321274 0 0)
(0.001444786233716468 0 0)
(0.001405354993446694 0 0)
(0.001354939743213377 0 0)
(0.001296158169532028 0 0)
(0.001231227401007288 0 0)
(0.001161192968073846 0 0)
(0.001087519774755852 0 0)
(0.001010431901303303 0 0)
(0.0009315155964297664 0 0)
(0.0008494809853306253 0 0)
(0.0007709363729424121 0 0)
(0.0006828762633724707 0 0)
(0.0006028424916466804 0 0)
(0.0005232240007198745 0 0)
(0.0004476500267503841 0 0)
(0.0003772023241054291 0 0)
(0.0003139260516094004 0 0)
(0.0002592250528330218 0 0)
(0.0002161420479983477 0 0)
(0.0001855246719569698 0 0)
(0.0001701409922561034 0 0)
(0.0001678005661385349 0 0)
(0.0001830055909761833 0 0)
(0.0002160207918535002 0 0)
(0.0002621184016329122 0 0)
(0.0003199840794692881 0 0)
(0.0003860474006865809 0 0)
(0.0004584322980464615 0 0)
(0.0005356354923629394 0 0)
(0.0006171082752954645 0 0)
(0.0007009265005016401 0 0)
(0.0007871532986807291 0 0)
(0.000872484147926555 0 0)
(0.0009632230837400333 0 0)
(0.001039235666566273 0 0)
(0.001123881631235613 0 0)
(0.001204040448868191 0 0)
(0.001281150083665841 0 0)
(0.00135338819606375 0 0)
(0.001419218921472055 0 0)
(0.001476727724305643 0 0)
(0.00152462885546864 0 0)
(0.001561054036242511 0 0)
(0.001585228431446077 0 0)
(0.001593998480130712 0 0)
(0.001588843889406637 0 0)
(0.001570645540466626 0 0)
(0.001538659600782505 0 0)
(0.00149406136679956 0 0)
(0.001440334904576976 0 0)
(0.001379599184989074 0 0)
(0.001313143080393726 0 0)
(0.001242592787367127 0 0)
(0.001168588327407633 0 0)
(0.001092424560935272 0 0)
(0.001013361213427776 0 0)
(0.0009377828126397088 0 0)
(0.0008503994626100949 0 0)
(0.0007713649367785453 0 0)
(0.0006932491932281187 0 0)
(0.0006183178529277806 0 0)
(0.0005481066941903345 0 0)
(0.0004841898899426728 0 0)
(0.0004286092597614065 0 0)
(0.0003828834045121312 0 0)
(0.0003495469651797276 0 0)
(0.000329938744112742 0 0)
(0.0003245332283898696 0 0)
(0.0003340623287453666 0 0)
(0.0003617691235471768 0 0)
(0.0004052752539813955 0 0)
(0.0004601515649148365 0 0)
(0.0005251033576757163 0 0)
(0.0005968665006278127 0 0)
(0.0006741491113039213 0 0)
(0.0007558074059793793 0 0)
(0.0008409531455284663 0 0)
(0.0009287825521706943 0 0)
(0.001016783230043403 0 0)
(0.001107944829078646 0 0)
(0.001189110982056677 0 0)
(0.001271818774858928 0 0)
(0.001354961033116542 0 0)
(0.001434544507945622 0 0)
(0.001509829501197289 0 0)
(0.001579466051482448 0 0)
(0.001641851936561895 0 0)
(0.001694766263661352 0 0)
(0.001737597692601705 0 0)
(0.001767951179054963 0 0)
(0.001784602109063617 0 0)
(0.001786172066104158 0 0)
(0.001774365316347703 0 0)
(0.001750487940026114 0 0)
(0.00171214532970058 0 0)
(0.001663920691955086 0 0)
(0.001607735774540981 0 0)
(0.001545527728287457 0 0)
(0.001478087452013947 0 0)
(0.00140747434395376 0 0)
(0.001334326415968717 0 0)
(0.001259271767072283 0 0)
(0.001182654769471977 0 0)
(0.00110541383798837 0 0)
(0.001020894698293022 0 0)
(0.0009458764366929784 0 0)
(0.0008716164357155658 0 0)
(0.0008018073541446861 0 0)
(0.0007377589544468868 0 0)
(0.0006814194597797662 0 0)
(0.0006339529711451976 0 0)
(0.0005982587396015243 0 0)
(0.0005748827073764701 0 0)
(0.000566869531190405 0 0)
(0.0005703657069776392 0 0)
(0.0005928851608544632 0 0)
(0.0006339720388486157 0 0)
(0.0006858190456545338 0 0)
(0.0007491125061958903 0 0)
(0.0008204727384923131 0 0)
(0.0008978553024014942 0 0)
(0.0009798968804641084 0 0)
(0.001065832925006793 0 0)
(0.00115534435318694 0 0)
(0.001246589136098626 0 0)
(0.001336395698705103 0 0)
(0.001429814908167974 0 0)
(0.0015052046563882 0 0)
(0.001592927994076832 0 0)
(0.001674627865939139 0 0)
(0.00175314739191847 0 0)
(0.00182647325935196 0 0)
(0.001893315749635126 0 0)
(0.001951878357496735 0 0)
(0.002000653710408963 0 0)
(0.002037400431064169 0 0)
(0.002062296611976281 0 0)
(0.002069154352613961 0 0)
(0.002064848112656404 0 0)
(0.002049631960437234 0 0)
(0.002018291932268206 0 0)
(0.001975946884265225 0 0)
(0.001924905489337066 0 0)
(0.001867184736358176 0 0)
(0.001803828333144464 0 0)
(0.001736090696658121 0 0)
(0.001666356202741782 0 0)
(0.00159509765586895 0 0)
(0.001520202013924336 0 0)
(0.001451169431382498 0 0)
(0.001361798551337533 0 0)
(0.001290080854082264 0 0)
(0.001216467642378905 0 0)
(0.001147555622708237 0 0)
(0.001083172042776581 0 0)
(0.001026136228826908 0 0)
(0.000977742486961706 0 0)
(0.000939871788944843 0 0)
(0.0009138868345891306 0 0)
(0.0009022796150815199 0 0)
(0.0009019902231027979 0 0)
(0.0009193724813014608 0 0)
(0.0009558199565561317 0 0)
(0.001005542007157744 0 0)
(0.001066547133745807 0 0)
(0.0011370325951614 0 0)
(0.001214427859021811 0 0)
(0.001297158576557611 0 0)
(0.001383443723302719 0 0)
(0.001474277800444576 0 0)
(0.001568466570425312 0 0)
(0.001660377160471212 0 0)
(0.00175960008371917 0 0)
(0.001833687645275781 0 0)
(0.00192355220895742 0 0)
(0.002008215396274996 0 0)
(0.002090079790601874 0 0)
(0.002166794615803361 0 0)
(0.002237912305109125 0 0)
(0.002301671823336471 0 0)
(0.002356539518266962 0 0)
(0.002400222946671392 0 0)
(0.002431555265263807 0 0)
(0.002447329803071122 0 0)
(0.002449882756482795 0 0)
(0.002440339912628588 0 0)
(0.002418123219877385 0 0)
(0.002381852639948699 0 0)
(0.002336110052879254 0 0)
(0.002283226871222373 0 0)
(0.002224297455556478 0 0)
(0.002160049565262459 0 0)
(0.00209305930168818 0 0)
(0.002025767769192904 0 0)
(0.00195506784477002 0 0)
(0.001886109116063607 0 0)
(0.001805932854702219 0 0)
(0.001729194506743887 0 0)
(0.001658874286797332 0 0)
(0.001590323084170016 0 0)
(0.001526375355290224 0 0)
(0.001468731458467393 0 0)
(0.00141932595889962 0 0)
(0.001380175887633093 0 0)
(0.001352203706970348 0 0)
(0.001336748728771389 0 0)
(0.001335076001060045 0 0)
(0.001345896172453264 0 0)
(0.001376547691196145 0 0)
(0.001425538291657532 0 0)
(0.00148372864727417 0 0)
(0.001553157551328799 0 0)
(0.001630352950723522 0 0)
(0.001713747351878729 0 0)
(0.001801227927712847 0 0)
(0.001892167293056405 0 0)
(0.001988915139172216 0 0)
(0.002085211836149796 0 0)
(0.002181112461886023 0 0)
(0.002273707986812307 0 0)
(0.002352239035317337 0 0)
(0.002443344534369188 0 0)
(0.002527525687332336 0 0)
(0.002608103755119905 0 0)
(0.002683056267829081 0 0)
(0.002751599004981757 0 0)
(0.002812420730174027 0 0)
(0.00286329523064897 0 0)
(0.002901092629658673 0 0)
(0.00292697064367046 0 0)
(0.00293255628624369 0 0)
(0.002930453967064639 0 0)
(0.002919380662525365 0 0)
(0.002889373555829969 0 0)
(0.002849820049781227 0 0)
(0.002801819310309925 0 0)
(0.002747706997677012 0 0)
(0.002688107271767483 0 0)
(0.002623493399448002 0 0)
(0.002559819627686802 0 0)
(0.002494214380092481 0 0)
(0.00242476234218145 0 0)
(0.002360523152298303 0 0)
(0.00227181332977669 0 0)
(0.002207759801270797 0 0)
(0.002139694686941017 0 0)
(0.002076635893714983 0 0)
(0.002018460217476138 0 0)
(0.00196796351775187 0 0)
(0.001927381481870006 0 0)
(0.001898230556224259 0 0)
(0.001880014569236622 0 0)
(0.00187644989072645 0 0)
(0.001881036031841289 0 0)
(0.001907221283146368 0 0)
(0.001954191967296196 0 0)
(0.002010005299172204 0 0)
(0.002077936436922498 0 0)
(0.002154564278893073 0 0)
(0.002238333264334807 0 0)
(0.002327397452821332 0 0)
(0.00241906008725133 0 0)
(0.002516851471206826 0 0)
(0.002617987853549461 0 0)
(0.002714156123357732 0 0)
(0.002821664204602806 0 0)
(0.002887960275542517 0 0)
(0.002987226688078727 0 0)
(0.003074123683544988 0 0)
(0.003158920811939134 0 0)
(0.003237732228232768 0 0)
(0.003310590361082965 0 0)
(0.003376580460833478 0 0)
(0.0034346780579589 0 0)
(0.00348032624994748 0 0)
(0.003513187506131134 0 0)
(0.003528261421976739 0 0)
(0.003533053482248193 0 0)
(0.003527458544242736 0 0)
(0.003507331755214619 0 0)
(0.003473741011772566 0 0)
(0.003431293727514498 0 0)
(0.003381805875905711 0 0)
(0.003327127267440607 0 0)
(0.003266601350353299 0 0)
(0.003204806673535468 0 0)
(0.003144578458940247 0 0)
(0.003078989144331974 0 0)
(0.003018624121589941 0 0)
(0.002934686784575515 0 0)
(0.002868384875754364 0 0)
(0.002803817750734661 0 0)
(0.002742042330835315 0 0)
(0.002684160375425386 0 0)
(0.00263281852752886 0 0)
(0.002590488212827555 0 0)
(0.002560174158891602 0 0)
(0.002541244457504022 0 0)
(0.002533734908706861 0 0)
(0.002538782076047909 0 0)
(0.002557963776738338 0 0)
(0.00259793399174648 0 0)
(0.002655871948793186 0 0)
(0.002721181773465056 0 0)
(0.002797561018488767 0 0)
(0.002881443849399907 0 0)
(0.002971832222768452 0 0)
(0.003065628942291091 0 0)
(0.003163747103833413 0 0)
(0.003268359443904365 0 0)
(0.003370304781032928 0 0)
(0.003472672527973517 0 0)
(0.003564087181199316 0 0)
(0.003647207777575893 0 0)
(0.003742973047836854 0 0)
(0.003830990963661542 0 0)
(0.003914303854428017 0 0)
(0.003991631007403246 0 0)
(0.004062095476625722 0 0)
(0.004126354049163079 0 0)
(0.004181152311218758 0 0)
(0.00422068214695112 0 0)
(0.00424872674473695 0 0)
(0.004253604725698842 0 0)
(0.004254563685496003 0 0)
(0.004249771887710042 0 0)
(0.0042216746344732 0 0)
(0.004185922833276733 0 0)
(0.004141538235110541 0 0)
(0.004091582714354576 0 0)
(0.004036226668688307 0 0)
(0.003977109230021796 0 0)
(0.0039207407952301 0 0)
(0.003861598731983762 0 0)
(0.003798630230651694 0 0)
(0.003740182780145339 0 0)
(0.003652609452226188 0 0)
(0.003598923694757535 0 0)
(0.003537862650758565 0 0)
(0.003482001966162235 0 0)
(0.003430690764547403 0 0)
(0.003386567247352249 0 0)
(0.003354074399179746 0 0)
(0.00333464957480586 0 0)
(0.00332520562591249 0 0)
(0.003330688706481976 0 0)
(0.00334078881150838 0 0)
(0.003376834481511429 0 0)
(0.003436618526228535 0 0)
(0.003499845166145005 0 0)
(0.003575946477467072 0 0)
(0.003660077143908665 0 0)
(0.0037511676833 0 0)
(0.003847056443946674 0 0)
(0.003945881895657066 0 0)
(0.00405404361741436 0 0)
(0.004161154988757066 0 0)
(0.004262289756432701 0 0)
(0.004379931319784252 0 0)
(0.004435402329282829 0 0)
(0.004548456697510497 0 0)
(0.004638533657174241 0 0)
(0.00472762954820281 0 0)
(0.004809660874392038 0 0)
(0.004884807758341526 0 0)
(0.004953659393825934 0 0)
(0.005015602644526875 0 0)
(0.005065500664802389 0 0)
(0.005100991250809045 0 0)
(0.005117436879121988 0 0)
(0.0051247754956015 0 0)
(0.005124476950722943 0 0)
(0.005107833210503438 0 0)
(0.005077989607508503 0 0)
(0.005039838605367239 0 0)
(0.004994891899331116 0 0)
(0.004944678347972951 0 0)
(0.004887593162481598 0 0)
(0.004837592497999615 0 0)
(0.004782333606211733 0 0)
(0.004723639733063206 0 0)
(0.004671379625899316 0 0)
(0.004585052255428526 0 0)
(0.004532429333076619 0 0)
(0.004475914761134449 0 0)
(0.004422559041518189 0 0)
(0.004372678928690155 0 0)
(0.004328857932903451 0 0)
(0.004293500885095093 0 0)
(0.004271140578364478 0 0)
(0.00426220483614032 0 0)
(0.004263014158540183 0 0)
(0.004279556398753603 0 0)
(0.004304432606376251 0 0)
(0.004355226923633916 0 0)
(0.004427099034174257 0 0)
(0.004499617941758992 0 0)
(0.0045851646987849 0 0)
(0.004677687148726734 0 0)
(0.004776228079312349 0 0)
(0.004873682141702585 0 0)
(0.004987363839155292 0 0)
(0.005098284503833934 0 0)
(0.005206999450055425 0 0)
(0.005314020519587498 0 0)
(0.005408332711681122 0 0)
(0.005492562218521829 0 0)
(0.005599314109775886 0 0)
(0.005691569532773846 0 0)
(0.005778253903114945 0 0)
(0.005859553852604735 0 0)
(0.005934707181517721 0 0)
(0.006002423245418024 0 0)
(0.00605753640980512 0 0)
(0.0061070274985493 0 0)
(0.006195425813118843 0 0)
(0.006152276022738483 0 0)
)
;

boundaryField
{
    inlet
    {
        type            calculated;
        value           uniform (-2.972462982597873e-05 0 0);
    }
    outlet
    {
        type            calculated;
        value           uniform (0.006152276022738483 0 0);
    }
    frontAndBack
    {
        type            empty;
    }
}


// ************************************************************************* //
