/*--------------------------------*- C++ -*----------------------------------*\
| =========                 |                                                 |
| \\      /  F ield         | OpenFOAM: The Open Source CFD Toolbox           |
|  \\    /   O peration     | Version:  v2012                                 |
|   \\  /    A nd           | Website:  www.openfoam.com                      |
|    \\/     M anipulation  |                                                 |
\*---------------------------------------------------------------------------*/
FoamFile
{
    version     2.0;
    format      ascii;
    class       volScalarField;
    location    "0.016";
    object      p;
}
// * * * * * * * * * * * * * * * * * * * * * * * * * * * * * * * * * * * * * //

dimensions      [1 -1 -2 0 0 0 0];


internalField   nonuniform List<scalar> 
1000
(
100457.6613765128
99082.11774571582
98436.74510744243
98644.74174359783
99533.51556672911
100788.2131093208
102060.7507451695
102648.5163604259
102506.7861735145
101945.7399212481
101302.7805769874
100873.5545713633
101119.6250314554
101597.1851505816
102153.3963131294
102434.3731115169
102402.8559656379
101604.1255132649
100533.4206118993
99663.08440507305
99122.41513738339
99291.98929753796
100305.8256012136
101571.8381382369
102825.4651570942
103655.5767199859
103652.8581383865
102812.8941492143
101624.3113085603
100428.2244125718
99655.15134317297
99724.85443226347
100322.7118935129
101092.2522290083
101827.7774910655
102130.6658616754
101850.4418637098
101358.5229937378
100620.3538421647
100250.2878203125
100442.231669934
101605.905989121
102622.4224421949
103449.3239881282
103788.2894904898
103446.0062988467
102218.5506696218
100819.2376085431
99509.20564421581
98589.53640148602
98367.47167789163
98939.90419623467
100052.1061701959
101323.1366706309
102359.4666248714
102849.605114372
102796.8607616246
102580.6714499014
102170.2451406653
101860.4364234056
101702.3842512868
101873.1213601132
101710.7318345766
101190.6760771888
100298.7960901778
99588.73148333974
99097.66599811868
99160.78604070986
100061.1013526729
101393.8840901905
102693.316356231
103546.9911129051
103621.5527075159
103041.5344880041
101974.3430278656
100948.5548295753
99895.23066596848
99736.03283273734
100121.9424439755
100834.0620905429
101448.3076818173
101873.6037684269
101715.3374514177
101257.7071026913
100646.8852510604
100360.7255963871
100508.6943384682
101570.350897749
102651.5709530548
103442.8753777309
103788.7225350398
103384.6194786453
102127.7808750781
100661.5670728349
99332.08394294404
98502.2796727369
98458.87028623986
99172.65436460481
100333.7807568288
101547.0593143404
102545.489761517
102839.2577403798
102606.7736116886
102248.9915527889
101773.7749271542
101405.7548175428
101316.2219419991
101498.2708134972
101532.5937919059
101348.2641532879
100699.4823321426
100076.6830153391
99475.61142553193
99304.64052489125
99842.87349323796
101099.1308921563
102219.7837412296
103144.978490397
103431.8393888704
103130.0559739656
102316.3015289161
101173.3285007459
100219.716201153
99723.18041592863
99885.38135860526
100470.9322493211
101061.8589938627
101542.8329526163
101672.9190994203
101450.9247741469
101135.5331994034
100890.8596578303
100984.9361650787
101529.7167311225
102159.1700236414
102684.0678430283
102974.609800128
102769.6979132858
101887.685578493
100942.9366295679
99894.97018075452
99201.31385428357
99167.94119183801
99713.77598299952
100661.9190029592
101422.4269836226
102091.501573547
102165.4653826567
101962.6737053517
101391.0258046828
101263.8707163672
101312.5877994351
101636.9105901827
101884.4322031428
102292.323412478
102311.7325827032
101585.7435840979
100375.0413617915
99338.12470159061
98793.79445850331
99112.591299041
100155.0408674202
101489.6999806829
102819.6028656415
103643.6638463018
103609.4664780775
102776.9932611287
101558.6895843333
100370.3102264421
99482.65967210862
99552.70068461953
100209.0405050024
101218.5671531042
101982.9106719551
102341.0280140213
101975.6550837294
101231.6054315788
100410.4963110136
99972.34330060991
100133.6976613355
101397.2905689788
102639.2794155161
103611.5614392291
103819.235818758
103129.9122182366
101760.855481112
100133.2606875702
98799.55350078949
98202.33495819558
98480.63036408242
99455.7725183646
100704.0891693094
101884.9200018957
102694.8150738804
102707.9716720118
102366.414019744
102020.240815907
102001.6055037199
102068.7458824763
102034.2772222136
101806.1246439629
101448.4734247797
100774.1856044093
99763.49435206958
99048.1426085054
98688.60744324572
99085.15094730194
99986.41651777006
101449.762070082
102982.8744546271
104088.4903589658
104268.3874143907
103372.6868693406
101868.749474108
99907.87759441011
98327.98321048796
98115.91375155063
98680.64972644081
99724.74172397668
100899.5584870839
102167.8409680696
103130.1717179102
103246.4523811908
103090.2518116671
102301.400275692
102062.421869853
101255.7346933855
100543.6850850648
100324.6827977679
100518.1090241496
100490.7382839384
100368.1621578188
100491.7943687118
100952.8787342548
101687.0244222009
102464.3602908034
103083.4139664304
103495.0388679632
102938.5020025588
101395.1881556624
99592.32027023303
98694.15106794653
98192.9997022945
98458.08559878482
99380.77488869346
101145.490363808
102910.6570198914
104335.865763565
104839.0170722993
104355.5346769736
102890.6560850436
100803.8997913492
98947.70880909955
97930.50063256032
97967.30240958519
98923.94157234587
100509.7288000219
102240.0665135708
103410.8211142842
103866.1375923125
103519.2465018385
102610.4921666344
101456.886840044
100367.2853170544
99570.54126956714
99555.48788809945
99967.3902327055
100509.8317113048
101050.5878001711
101458.974812374
101527.4609191025
101461.6578875538
101310.5696552443
101440.7233329001
101618.5383124865
101793.5906867358
101757.6539096974
101994.8398695776
101791.9536411987
101507.1360603571
101225.6870027036
101113.2577487868
100736.6426044269
100525.2814796892
100245.5681348429
100066.8215781975
100008.5149464697
100327.3438436396
100611.2748967523
101176.530596118
101785.5937241944
102306.4022893444
102711.340937035
102635.8818990992
102034.1714047595
101503.8534651773
100523.2611741788
99808.13857451131
99601.18858914499
99995.38401302692
100436.9720379078
101345.3584699029
102180.6123303602
102361.2256623968
101836.588535633
101549.2110996978
100889.4987066662
100528.6660699611
100584.9527281693
100978.681309878
101230.8919546385
101641.1718384818
101763.9951561538
101461.2557952755
101187.255698255
100633.4027807133
100243.1253593061
100226.0771432826
100576.7036446565
100908.9008504819
101746.866289562
102448.3252236082
102502.7276972756
102556.3652053253
102326.0201669405
101670.297465309
100738.0971891997
100195.3332252853
99691.38401944572
99677.29137575846
100289.8124829857
101250.3569087638
102008.9030745727
102349.1369458087
102055.5013004542
101151.1372799827
100217.2174267496
99537.35461005598
99484.03021988805
100242.7405411231
101424.165956974
102518.6194081589
103199.101663213
103099.3433561973
102050.65829446
100652.2241849898
99357.16226450366
98633.80543367584
98804.11395244466
99971.83409308325
101621.0377126299
103010.2393075519
103774.4599410658
103535.4714715609
102447.6208001497
101124.5018388574
99970.02887062522
99446.61212119575
99559.04237689885
100197.4064279106
100886.6656351577
101406.4405766971
101382.2353649562
100952.5943442306
100448.8025979649
100162.0929319479
100611.7373348412
101774.9574636237
102720.3701767922
103429.319880442
103534.0877023593
102731.1733686441
101205.2286433269
99844.18370351371
99169.00908696197
99284.25154273535
99922.7154528637
100947.6560287051
101778.4416941258
101824.942810202
101238.4105947075
100493.0417271805
99766.34787963751
99693.66300935241
100128.9063285696
101186.7429491403
102371.5766426617
103012.2208258582
103307.9262376029
103039.0933611771
101843.7936586503
100216.7532071783
98907.96953594379
98159.46638463171
98088.74959813799
99108.58480806301
101520.0740441579
103810.3866600935
105105.1796739426
105486.1117793923
104809.7652955877
103099.1394549828
100632.855097494
98564.59952711871
97399.77000985606
96966.10771223398
97330.48064910491
98518.73955683761
100798.0412262356
103823.984852958
105137.8101390753
104867.2731516453
103579.9029518469
102265.967098256
100121.6036080226
98781.86798553671
98227.59014455233
98501.83576781707
99458.18155578134
100500.0088000994
102545.3711618506
103736.2338913987
103699.1237578047
102627.8416913619
101771.5086517808
100171.9698270791
99003.66659554705
98560.73098408531
99033.73511417495
99735.36675839346
101315.8966363546
103586.2418513638
104647.2860875402
104099.7911353132
103098.6587734079
101719.7035249429
100100.4854997931
98905.70170520293
98481.71678336027
98895.02017406956
99545.91487442325
100585.8745421609
102039.468862674
102627.9363384263
101967.6747915451
101192.2029694242
100218.4387107369
99475.93490082868
99214.83551943817
99711.31033010782
100919.2569907092
101984.4826648108
102937.2741403774
102774.3983210405
101622.8636363085
100404.8229014613
99225.15200266639
98644.9482128653
98892.1757139488
100109.9507031246
101512.7264724267
103770.2656008061
104727.1348276352
104214.8638740001
102944.0950860957
101546.1919233141
99976.72178779087
99271.07632206169
99358.08688010207
99534.05349301072
99728.18170156244
100050.2866406864
100368.2397546433
100645.1054013787
100875.5993581583
101055.5961786125
101294.1137409149
101153.6795532288
101516.1256440377
101640.8228175309
101522.7750740774
101441.2626553218
101167.3385026683
100789.1450799935
100389.4219013306
100105.7851525113
100300.6008799543
100245.240698799
101273.3389009128
102526.8658587916
102868.4365757239
102308.8079576756
102115.5492147536
101454.0792353171
100615.6457955109
100112.0024597183
100227.5084927901
100254.3651699408
100609.9436954564
100940.4232856482
100931.9962204078
100486.7547977546
100673.4933619099
100309.6818657671
100260.1749666966
100531.5759479764
101108.4135174153
101649.151189589
102503.292975565
102731.4411665503
102151.2724593438
101610.931512535
100740.5189434971
99921.59333246548
99493.13755692374
99592.16440385787
100370.0656347557
100886.5490643031
102162.6037172294
102743.6508921366
102145.1418962432
100825.97795754
100044.0014968867
99359.34836094985
99198.72186729765
99494.06380371099
100361.6383022427
101461.5320683531
102476.6259540399
102930.2033637102
102250.7795691126
100530.1290484557
99240.0874822656
98250.13865270454
98302.86160561761
99317.95383220396
101173.4880382996
102920.5056055603
103861.3522020082
103653.0510255818
102355.9690444451
100716.4273040011
99351.10895146384
98755.43688838756
99012.28503913977
100140.6521421857
101726.1864620176
103090.4350658797
103497.7774075483
102621.8011850805
100923.2977520833
99166.58891514491
98304.16793641663
98815.85066619357
100454.6469591431
102484.9055579791
103784.2513135562
103865.1767513512
102843.5251789766
101454.9867974754
99552.88210404762
98745.5041691998
99011.18591579732
99807.73786187432
100984.3650788655
101781.5879013415
101638.3488607132
100892.9286071955
100213.3729897413
99800.42572100402
100086.8662660201
100875.8349347944
101393.111269281
101938.7602141846
101846.7574367743
101404.5007288931
101228.3387635439
100668.1719667719
100226.5211480052
100014.5005217488
100162.668497155
100204.5578767991
100784.0055022026
101508.313814581
101707.0527767903
102299.1317658246
102232.7220758
101955.6192548003
101260.1032535897
100443.577828813
99694.22666032337
99489.78929255852
100043.4585411318
100976.1629958039
101882.4051037374
102124.9314814876
101578.7990673872
100508.3932492746
99432.14593784249
99058.74673061722
99840.854210201
101392.6240062494
102973.8626256671
104035.498715818
104075.4869831565
102671.3949305491
100497.1938305487
98489.67147212374
97582.25122029772
97990.86104134399
99349.87604528903
101486.2070005437
102970.9736111756
103099.0126623058
102353.6986359101
101095.1895466678
99910.50472741232
99673.78680195543
99605.21639269372
99976.55299861956
100641.0277308877
101219.054107911
101361.4274737951
101457.7643696591
101141.4632044247
100656.2420257894
100355.2928369138
100374.8365044466
100220.9142998115
100596.3718124126
100951.0282384265
101111.9648007034
101292.9898029311
101340.7563381744
101445.3125682257
101635.6745674213
101819.4128943309
101762.7009793433
101445.3053114018
100932.1747000913
100005.7310908231
99223.64755866824
98805.85164182525
98718.60620445349
99432.35820702942
100553.0574218558
102084.8419196619
103635.6605493299
103997.7865439302
103279.3906783198
103025.3526018937
101965.3288538993
100469.7574514331
99334.067521734
98615.6406452894
97891.01194819428
98029.72594544243
99699.10846550604
101836.3239694191
103267.9977407059
103971.4673350204
103515.8063117506
101662.315456776
99559.08814300565
97767.36979175096
96883.25284845367
97500.37554665343
99452.79526449612
102103.35828904
104090.888294346
104482.2233307965
103363.0123023033
101076.0867264066
98647.19331554108
96796.5332043379
96262.99211712681
97553.42993015902
100136.9495237039
102824.0536186424
104723.0483658795
104990.3452027415
103756.5627598428
101603.7677005473
99238.82885370973
97482.72771844314
97478.16925027818
98718.01210839252
100490.9130573477
102129.3903791402
102943.533299205
102664.5842373773
101681.4857824952
100418.1311413348
99120.1870126539
98947.60700713863
99918.96509480523
101144.0009311297
102314.0764512198
103092.6451476942
103077.0983699503
102227.1788476955
100823.1494999935
99255.46764481787
97916.98683475086
97735.78406758379
98657.91659123205
100132.7414605527
101342.1129830057
102319.0307587479
102422.1904056771
102053.8441634941
100723.73631143
99772.82529701444
98911.75898085618
98937.60240864193
99406.2201251832
100649.9673133052
101135.2257474254
101822.041589605
102193.8164923802
102041.6601558428
101548.0578434416
100607.2825822354
99928.99107035638
99260.41603052057
99174.02550835744
99435.40645609082
100928.3810663613
101633.22702464
102514.6892279208
103233.0601577722
103374.5644785543
102918.7682935657
101422.6818985492
99234.05044498366
97132.60066906635
96012.76701363971
96972.33342593265
99474.16772887611
102071.4915539004
104304.3549526043
105605.2503232412
105763.413626995
104403.6584569424
102244.1414546636
99373.01993561399
96874.99876326419
95385.24536903395
95375.22498601131
97087.62924578483
100133.6217392574
103287.8402325558
104966.396939483
104618.7232736886
102762.2792648377
100436.5270466831
97831.15318376652
96489.64999681902
96330.42366126034
97604.17337192252
99794.18349810326
102492.4642994269
104092.0967718303
103935.6297522297
102173.3915673405
100270.5768025926
98324.98657307256
97314.62877772923
97307.14594078905
98227.39171600997
99763.97675426878
101386.6550650775
102892.4267910332
103070.0477232513
102067.8653432503
101389.6184400221
100683.0803915869
100320.9331412807
100235.1985442231
99663.50199286597
98982.55654731272
98454.13318687082
98072.0639304707
98019.13881590175
98506.89485193789
99559.90009953977
100636.7578266877
102412.6960574753
103271.0454247831
102867.355745257
101819.9725281014
101486.3691267657
100743.6427667181
100448.686476592
100215.0650781869
99812.75454071164
99145.46841670679
97492.00614746629
96638.02592699198
96655.15772451066
98149.85137984366
99846.55496568895
101979.7479665492
102938.446531048
103245.4901101327
102508.1792113576
100854.9378940705
98589.00785420115
96351.83135385596
95213.42365386285
95858.54011167909
97854.79339302024
100423.7388819389
102397.8281996762
103227.765435339
102809.9318976881
101064.8292307483
99055.910714517
96937.10027023224
96621.2878227466
97515.19969672168
99369.35995939221
101065.6572828093
102674.8252760788
103125.7580645001
102520.9024888435
100891.7926136308
98911.42509896657
97079.46747447997
96714.50631489811
97775.1436273538
99400.47684241926
101114.3764656416
102487.2690956851
102734.4263281479
101727.6464192163
99965.21004657535
98097.05753056461
96835.63647665479
96898.07725716085
98220.12492797001
100075.5049117474
101751.4960916654
102254.5752399653
101155.7693428876
99148.94982797722
97346.02834951159
96319.93394690394
96439.9252341346
97614.86298740891
99535.84595858677
101402.8695795703
102163.6737631406
101936.4291671255
100903.7113308517
98823.99952341117
97801.73416674983
97715.04104947561
97510.66148759649
97556.91757800337
98615.93717530731
100085.3895274886
101222.8540225157
101978.8309057902
102773.0427380555
102034.4784425228
100025.8375617154
98563.29936640379
97705.29265348136
97142.2158102009
97526.8474534812
98686.54268394383
100383.3277045804
101039.1442282105
102460.092336689
102660.2721355294
101503.6830146408
99651.97159383548
99047.20440172043
98071.66802113566
97975.07028351897
98388.23509829211
99050.87047219231
99171.04848656876
99804.6827116655
99977.80842116382
99730.19305806489
99209.52981633302
99725.92718838363
99557.22922872
99788.70979969857
99869.74863593112
99673.28658065133
98862.58375519735
97859.66519377695
97000.42771817396
97101.03584175039
98169.5339724884
99432.23635964945
100817.9466720089
101816.633867423
101985.4519204882
101204.3757298576
99586.1482938863
97444.22609500121
95451.92715517494
94457.81285269994
95080.42944828565
97205.99323860469
99942.51808328644
102248.973524319
103240.0426479189
102831.7369322947
100971.5741150897
98290.69890166108
96061.74212341654
94877.8773850454
94902.90931501004
96097.86486117585
98168.89878382032
100071.2200246035
101503.1427955891
101752.6022365806
100891.0494619452
99413.67004794143
97964.03603074461
97039.29529579058
96676.15274391347
96844.72567214814
97301.84706945115
97692.73213158402
98135.79067020422
98095.39566806036
98168.13133175651
98449.844885731
98948.434923536
98975.65453171525
99174.93660180946
98513.63533366083
97661.08859599671
97316.53041908698
97004.35254446807
97052.48126423235
97632.06670504266
98460.05081358191
98751.57884550087
99394.35265499679
99208.5670156909
98268.17732402674
97470.89805931076
96818.98737406528
96774.32749284801
97510.63843702078
98774.43487112584
99490.87445862549
100009.5579952384
99298.06150695254
97687.75282281038
96756.21592353794
95951.73953162611
95771.60154362122
96456.7513809908
98200.42538359844
99842.10781040133
101037.5564538388
101530.9862830667
100509.5978424966
98206.61214686376
96690.05948195819
95764.97189649769
95523.21664751605
96132.48221099866
97618.18582345876
99354.64564634184
99953.57868519553
100824.8585731327
100509.3059809553
98960.61535381182
97414.54819681997
97183.62388107143
96615.35874820818
96892.51973241309
97765.27062962174
98438.39388449743
98745.62370396244
98397.51617128235
97907.08591848704
96966.12932098063
96530.51033786427
96629.24898784421
97434.70756182287
97968.20216222611
98577.7417100833
98812.64597452254
98549.09857383705
97644.50706917605
96527.17707651958
95621.80189413743
95335.85735066015
96195.38281619303
)
;

boundaryField
{
    inlet
    {
        type            uniformFixedValue;
        uniformValue    sine;
        uniformValueCoeffs
        {
            frequency       constant 3000;
            scale           constant 50;
            level           constant 101325;
        }
        value           uniform 101325;
    }
    outlet
    {
        type            waveTransmissive;
        gamma           1.4;
        fieldInf        101325;
        lInf            2.25;
        value           uniform 96454.84204032592;
    }
    frontAndBack
    {
        type            empty;
    }
}


// ************************************************************************* //
