/*--------------------------------*- C++ -*----------------------------------*\
| =========                 |                                                 |
| \\      /  F ield         | OpenFOAM: The Open Source CFD Toolbox           |
|  \\    /   O peration     | Version:  v2012                                 |
|   \\  /    A nd           | Website:  www.openfoam.com                      |
|    \\/     M anipulation  |                                                 |
\*---------------------------------------------------------------------------*/
FoamFile
{
    version     2.0;
    format      ascii;
    class       volScalarField;
    location    "0.016";
    object      pMean;
}
// * * * * * * * * * * * * * * * * * * * * * * * * * * * * * * * * * * * * * //

dimensions      [1 -1 -2 0 0 0 0];


internalField   nonuniform List<scalar> 
1000
(
101325.5712745856
101325.3995630897
101325.9376910776
101326.2974512888
101325.8825545844
101326.8216649999
101326.4048243025
101325.8559406826
101324.9022116527
101324.2882799627
101323.9212221894
101323.9107344823
101324.0474231498
101324.729590669
101325.9026714939
101326.6588892166
101327.4969636224
101327.411882017
101327.1729807331
101326.6571036595
101325.9671475081
101325.3695316372
101324.6325061384
101324.9045225772
101324.9972011401
101325.407079832
101325.4854352758
101324.4168004442
101324.4813172305
101324.2803234487
101324.4865628233
101324.6197258692
101325.8420922215
101325.838801123
101326.8251274365
101326.7579396627
101326.0070216575
101324.9010861507
101323.8553700392
101323.2232015372
101322.8769544138
101323.0123600899
101323.8440507151
101324.536645684
101325.718027927
101325.8267074016
101326.0965864257
101325.3735051156
101325.5438820359
101325.6371234368
101324.9954408026
101324.8871081318
101325.4288812949
101325.0019675861
101325.1772280469
101324.7843806739
101324.3545086934
101323.8023435407
101324.1031391293
101324.1218793328
101324.3312887507
101325.2342669873
101326.2936857097
101326.59641728
101326.6939663366
101325.7201439792
101325.3484011061
101324.8582791282
101324.1363728944
101324.3777180321
101324.1880106881
101324.7527584135
101325.2034289201
101324.5324663064
101323.5208662362
101323.6711268651
101323.1837279901
101323.6786064844
101324.4681415786
101325.1351988203
101325.6067071631
101326.4208283759
101325.7256099064
101324.2758602462
101323.6333393883
101322.7627961633
101322.1692852443
101322.2840694002
101322.7292096208
101323.4194600402
101324.5503519217
101324.7407161288
101324.7330101845
101324.5632898908
101324.2749510938
101324.6305791077
101324.6203800234
101324.2146986902
101324.976267993
101324.5204435058
101324.5755092878
101324.2158332345
101323.8271253271
101322.7069465721
101323.0247076516
101323.0212789407
101322.9428869673
101324.3258518176
101324.6249885833
101325.5270018811
101325.6474693856
101324.4034076357
101324.2598876316
101322.9887421887
101322.6006261106
101322.7931114527
101323.4293063838
101323.3856809756
101324.2928173111
101324.0699873755
101323.1390193335
101322.5389523121
101322.0656834413
101322.2936180751
101322.6354300259
101323.7379911559
101323.9164259555
101324.5592256901
101324.7121515272
101323.3605231884
101322.7645398244
101321.3203729042
101321.1721074316
101321.2476988092
101321.3193460096
101322.1514603799
101322.6891910659
101323.2625355307
101322.9290738387
101322.8806880012
101322.5140283786
101322.4823642895
101322.69124788
101323.0017600292
101323.1498637018
101323.7616641593
101324.040189907
101323.6150281306
101322.3048574589
101321.8686023
101320.7060149446
101320.7836273822
101320.6599205095
101321.5215462824
101321.8990257599
101323.3597094745
101323.4709696555
101323.2430683331
101323.3461138078
101322.5638395021
101322.3297850798
101322.1338887315
101322.1078960545
101322.318424677
101322.2844350534
101322.5006583861
101321.1841892115
101320.9412026367
101320.2468298596
101320.5328386246
101320.8778555795
101321.199478789
101322.2940539445
101322.3106841448
101323.0596480267
101322.613900665
101321.6899668629
101320.4758229108
101319.9994603678
101319.1088928763
101319.1989526323
101320.1136410483
101319.5755918759
101321.3293694646
101320.9410780061
101321.025546993
101321.245399579
101321.1802222197
101321.5456696944
101322.147043998
101321.3744036052
101322.2065111471
101321.9902461775
101321.783653729
101321.1555102107
101320.1579371967
101318.5733008657
101318.7807978818
101318.0277526525
101318.1844799765
101319.4288145355
101319.9613516724
101321.306838113
101322.0382420273
101321.6559744358
101321.5122259449
101321.400440257
101320.3145868386
101320.305540835
101320.3908853708
101319.713643341
101320.013741903
101318.995989616
101317.9888611399
101318.3924958908
101318.2742194341
101319.4377329678
101320.5352100409
101321.5293983287
101321.9410842211
101323.0303847936
101322.6038243149
101321.4601420039
101319.8260652461
101317.5713165838
101316.3515469448
101315.0102768514
101315.7098567252
101317.0894714972
101318.8777990201
101320.4925227567
101322.0360062424
101322.8258231988
101322.6042636937
101321.2929628971
101319.7588146315
101318.4088485678
101317.567058067
101316.5876796178
101316.4720810719
101317.191541268
101317.5582082354
101318.4405881389
101318.9776167912
101319.2747684951
101319.4169736752
101318.8977614112
101319.1017396322
101318.7118026606
101318.398706587
101318.0578946018
101318.184712898
101316.9478933664
101317.5919258911
101317.4242080958
101317.6893110864
101318.2941418791
101317.6719087663
101319.0273620667
101318.6368489974
101318.4125205063
101317.2405597139
101316.862960761
101316.2686857289
101316.2896929324
101316.7005297114
101316.990574761
101317.4107437521
101317.7829954151
101317.7914319207
101316.8178450795
101315.7852929641
101314.9375391233
101313.9171450814
101314.0913228497
101314.3505639177
101315.5231337906
101316.828169729
101317.4672308396
101318.1882938466
101317.637993804
101317.0437760535
101316.0579989745
101314.9310736385
101314.5584499406
101314.0182033442
101314.4630803575
101314.4383601316
101314.7673849463
101315.0378249988
101314.3203546823
101314.6589172617
101314.22521599
101314.7182232941
101315.0580571117
101315.718195784
101316.3426796602
101316.2500110999
101315.9410352367
101314.8452064373
101314.5255083513
101313.3175603195
101313.3042617954
101313.1442333671
101313.9736001592
101314.3624755547
101315.0520859426
101314.9546148688
101314.5066910781
101314.0915525386
101313.4784543528
101312.7003170473
101312.8162154207
101312.6762630358
101313.3521687165
101313.4607757451
101313.3901357315
101312.8474807769
101312.1468806641
101311.4274094329
101310.8440144869
101311.18601989
101311.8682990984
101312.7506635844
101313.5737625594
101313.967996489
101313.5645120102
101313.03824436
101312.3783305173
101311.5104173822
101311.1599745836
101311.3520591101
101311.5911267112
101312.2141681629
101311.943993847
101311.5891423441
101311.4974640493
101310.891567541
101310.8928407425
101310.7353221738
101311.0826900697
101311.4896771364
101311.687958262
101311.9478129709
101311.9411684823
101311.3747466143
101310.8269691392
101310.2410777055
101309.9297529889
101309.9636982429
101309.8357351289
101310.4126973434
101310.6997140717
101310.974958752
101310.8910989948
101310.4969089121
101310.4125399975
101310.0789605965
101310.0486657806
101309.8830925717
101309.383728968
101309.1777009366
101308.7200423556
101307.7125844684
101307.1290615746
101306.5788872637
101306.4978903325
101307.0061453151
101307.5819891758
101308.321597307
101309.4459063269
101309.5972262712
101309.8738784977
101309.5072344048
101308.4686233411
101308.381669504
101307.9819328503
101307.0535813531
101307.150872497
101306.4482844577
101306.8722423543
101306.8909403747
101306.2310661343
101306.5903935641
101306.0750881529
101306.1691709232
101306.3955999198
101306.9541521116
101307.8248393551
101307.6911484706
101307.7925516855
101307.4003782728
101306.6834559798
101306.0321993143
101304.7441662084
101304.2169086809
101304.2904264497
101304.9980207176
101306.3207653589
101307.2395693944
101307.8716448198
101308.3757661079
101308.7788038893
101307.9066592327
101307.6515362221
101306.3933364925
101304.7298894516
101303.6846584462
101301.3206971167
101302.2970327876
101302.2967598117
101302.9426726499
101303.4818112595
101304.8803239468
101306.5259989142
101306.2834454471
101305.3560629012
101304.2005734399
101303.1505910518
101301.6399724371
101300.9381382605
101300.5985278942
101301.2758612877
101302.3333132861
101304.0824633796
101305.463402013
101305.6103156981
101304.5890663905
101303.1585775057
101301.2760716499
101299.9339162552
101299.2802900273
101300.2234632522
101301.3525079886
101303.9045221064
101304.814369893
101307.6492174169
101307.5358585858
101306.1302946423
101303.8786457893
101302.186258734
101299.3718830964
101299.3184573868
101298.3312761249
101298.6702120414
101300.159462125
101301.1294296404
101302.1162459343
101302.665876436
101300.952944705
101299.815513779
101298.2442842707
101297.6452542228
101297.2345126136
101297.2371453908
101297.975359314
101297.3024179317
101298.5259961984
101297.6035453901
101297.5346740191
101296.3404672854
101295.9177938095
101295.7738573166
101296.7073457331
101297.7947803153
101299.3638676191
101299.4344011597
101298.7209869217
101298.0831300495
101297.5736916515
101296.4788753052
101295.0822554232
101294.4689024464
101294.3433263709
101295.7602181082
101296.0492893416
101294.47244594
101293.2019253745
101293.0180756152
101293.565927686
101295.1960854407
101295.7852335139
101296.3955106492
101297.9708023134
101297.5235384744
101296.228491266
101294.7636050921
101292.3354968992
101290.6414941515
101290.9389533538
101292.2227827038
101294.0455253838
101295.0812265568
101297.2824325571
101297.8373829473
101297.4754608559
101295.4108160034
101293.3085987892
101291.7331640612
101290.9415236777
101289.6251763384
101290.9221254519
101291.1856711196
101292.5693753563
101291.8643438321
101292.0354158092
101289.7956114162
101289.9552589521
101288.179190749
101289.0223681879
101290.1060962613
101291.421934794
101292.7287013392
101293.8286894011
101293.3497088993
101292.6616897663
101290.0391274805
101288.4733074917
101287.1339922363
101286.9642623465
101287.3537267485
101288.0719776821
101290.2929631434
101290.5657097002
101292.1540234614
101290.9581830411
101290.6035960293
101288.3628930281
101287.9213643893
101286.1987022697
101286.6977527409
101285.763963031
101286.1069112226
101285.9551094531
101286.5214514575
101286.0542470666
101286.5055889911
101285.6366844775
101286.1055362675
101285.7540502415
101284.9986576488
101284.8649606789
101283.9712334104
101284.4164995363
101284.5730727914
101284.5345301624
101284.5987068821
101284.1402507989
101284.6382796714
101283.5616444602
101283.4732293776
101283.00063916
101281.5544593349
101282.0447261269
101281.6454926037
101282.0364778379
101282.553473416
101282.0199794542
101282.7138645248
101283.9361909781
101283.4471918618
101283.2636437593
101281.6633727875
101281.7519902238
101280.8124057269
101279.7081426909
101280.1926780488
101280.4906930348
101280.9482249734
101281.2724669792
101280.4028003376
101280.6152050151
101279.4641568333
101278.8686925888
101278.7450655734
101278.746481982
101280.6173816721
101281.1171861982
101281.0541661547
101279.5453129337
101279.0597586493
101277.4202210496
101276.8502557756
101276.5266571625
101277.1637545531
101278.4746931101
101279.5190435261
101279.223024903
101278.8415295371
101277.5424451978
101276.7769024841
101276.4139212754
101276.3479095843
101276.308592311
101276.3380215968
101275.7560328804
101276.4232738146
101274.9113644784
101274.2082362377
101273.0784533123
101273.7310193286
101274.0642509177
101274.7669264483
101275.0173892986
101275.2553331693
101275.9286941954
101275.7800879667
101274.8236227528
101273.7999263571
101272.9882227245
101273.2000231682
101272.9406751361
101271.9973950416
101272.6529222026
101272.8086610651
101273.142087358
101272.8874839959
101271.7471839667
101270.8014768913
101270.4797370807
101270.4075125876
101270.5230693206
101271.2185814062
101272.6777434025
101273.4559933844
101273.3237100841
101271.4741291864
101270.3519511607
101268.5530053849
101267.4347021148
101267.0390802643
101267.8149810799
101268.9084612877
101270.9552270277
101271.597671745
101271.3399952896
101270.6604624075
101269.13715165
101267.7745617847
101266.1054054769
101265.8484898285
101266.1286841528
101266.4910699115
101266.4425022191
101264.9495700051
101264.6049822564
101263.5877030321
101264.4192462175
101264.2695500006
101264.7136350802
101266.4093466742
101267.6972265482
101268.3209792251
101266.5969342135
101264.7751506669
101263.5987146276
101261.8138096832
101262.0626568396
101262.3654928277
101263.0016871619
101264.2945395417
101264.8416938675
101265.0498345769
101264.1412352974
101262.8223024755
101262.1397366262
101261.8573163229
101261.7249553042
101260.2498074367
101260.7919143534
101261.3796630168
101261.1639026448
101261.0436291095
101259.0704868502
101259.6603378986
101259.9330370559
101259.799934295
101260.0063704195
101258.9973754466
101259.051592183
101259.0961261188
101258.4070833658
101257.2472949921
101255.3666824123
101255.7024883131
101256.8792306719
101257.6762059102
101257.363472394
101256.9269178439
101257.6297668911
101257.2186381801
101254.8414883124
101252.2022328006
101250.5039784075
101251.0312730538
101252.8906079279
101254.1518849412
101254.9693011551
101255.4847202477
101256.0785317158
101255.4334229667
101252.9973968324
101251.2440410843
101250.1149616513
101249.9342916412
101251.1227879852
101251.3482558448
101251.6974035945
101252.920548287
101252.2273164412
101250.8739439435
101248.2187335349
101246.6488670405
101247.0296104177
101247.8351967847
101249.1818937391
101250.8529730682
101252.1127272926
101253.3187824742
101252.9022667732
101249.825928372
101247.6227705409
101244.5786655407
101243.159880465
101242.3525569438
101242.7050447406
101244.2366994726
101247.5462813792
101249.4522467623
101250.982827733
101250.5143396387
101249.2859632857
101248.1242796944
101245.4093130692
101242.3977131174
101240.0115494054
101239.1906298022
101238.9476998249
101240.1936680277
101240.8147481881
101242.7062837558
101245.2675060602
101245.5257147081
101244.4747219135
101243.1611961843
101241.3084343397
101241.5740690493
101240.4932036002
101237.5377911469
101238.3227829354
101236.8525808465
101237.7645865353
101237.9656115435
101236.7753159152
101236.9449102522
101238.1358829208
101239.0995137648
101237.3047753289
101236.4402761776
101235.0438776509
101234.1129945536
101233.3886536346
101232.0703949342
101231.1183920558
101232.1303247067
101232.2863011616
101234.0669377844
101232.1195251307
101232.7402290953
101231.1940902763
101229.8101800064
101228.0101600631
101226.2257270551
101226.3485135661
101225.7777855754
101226.9232703879
101226.5817140136
101227.0581149743
101226.6467521509
101226.5657091036
101225.9307074919
101224.6033721563
101223.6882596569
101224.3744862396
101222.5851302673
101220.4584051118
101217.667775974
101216.532793523
101217.2792588395
101218.1845143173
101219.2251379956
101219.9720802646
101222.550037515
101222.9034239835
101223.4635765066
101220.198430691
101218.3386980558
101215.7553928604
101213.030392507
101210.9868639222
101210.8150298712
101212.8123923866
101213.8391734563
101214.9362382874
101213.4349927006
101213.3641115896
101211.1160186134
101211.1823066707
101209.6643222196
101206.6226961318
101206.959209458
101206.8955071591
101207.5762624053
101207.2945155294
101206.304169795
101205.1013327757
101201.8696061936
101200.8047011343
101198.9520599269
101199.712626853
101198.8785925565
101200.9651757948
101200.8181560822
101201.9470137289
101199.7009172684
101199.1109352368
101196.5507628611
101193.7188598578
101192.1442186342
101190.4862143736
101190.2290770076
101192.3067465795
101192.8468334311
101192.8449425729
101191.3056624942
101190.6830201782
101189.011312483
101188.188578452
101186.3949780014
101184.1308195273
101184.2973297806
101182.9347002084
101184.1756571214
101183.2501625441
101181.2391429959
101181.8223905825
101180.9415792758
101181.5207208293
101181.7291155018
101180.0089975209
101179.2673718319
101177.7001777783
101176.8712830991
101175.1899586044
101172.2247048938
101172.2350333816
101172.5099670996
101175.33785889
101175.1223007416
101174.6121289556
101174.3436855545
101172.7024180422
101170.6417190519
101167.674076626
101164.4527779882
101163.7782109889
101163.5867997005
101165.1466958459
101165.6695800493
101166.3070145717
101165.9231902979
101165.0919026157
101162.6853843493
101159.3079550394
101157.3347469095
101155.2973219814
101155.7220065338
101156.4025981733
101156.5464060179
101156.7447808524
101156.4667565889
101155.8888643207
101154.3927448283
101151.3013089367
101148.8106366564
101147.1047340509
101146.9588277406
101147.6195248605
101149.2576646798
101149.5259768158
101149.1768283765
101147.658505245
101145.7123591421
101144.3424128264
101140.1447566816
101138.9833914324
101136.3613509837
101137.497457826
101137.688636652
101138.0513098757
101138.9090795453
101138.1508882723
101136.7414544281
101134.1609615997
101131.8312340169
101130.520673532
101128.5779021408
101127.2915773699
101127.0994691993
101124.9429340407
101125.5307938219
101123.9565490644
101123.2404622833
101121.7688742551
101119.6827931584
101119.2884759903
101117.2553337716
101117.437477982
101115.5417057639
101113.0036364699
101112.2825540409
101109.4773761759
101108.9459043127
101107.2841288625
101105.9199874218
101103.8878271082
101102.8471341851
101100.902165243
101099.8517598912
101099.9181111093
101098.3600979286
101097.7223524083
101097.3279886851
101096.2991987585
101094.2461719956
101092.0055114493
101088.9233047608
101087.2073438407
101084.6016546102
101084.7787378702
101084.1717786722
101083.6343962932
101084.1188583021
101081.4631139453
101079.1493589438
101077.9865898535
101074.8486573602
101073.8802128161
101072.3939549539
101071.2197087086
101071.466972617
101070.9698442935
101068.8121140633
101066.1343929461
101064.1282371953
101062.4348836014
101061.6462109105
101060.8468578965
101060.150232975
101059.4847150062
101059.1570014646
101058.4507243896
101056.5461562577
101053.3974551282
101050.3964645437
101048.1648774464
101046.5563824247
101045.3012241978
101045.8184411521
101045.7916236095
101045.148170548
101044.1022988615
101041.7487410424
101039.7916345368
101036.1368110511
101034.3456548606
101031.0549626412
101029.8637412166
101029.8453835585
101030.0233203645
101030.3942407431
101029.5363850864
101028.2304928596
101025.0123583863
101022.847212201
101020.1402013068
101016.3991685575
101014.0552936088
101013.1598026851
101012.0949941504
101012.8369524247
101012.3592389969
101010.6467170289
101007.7350561269
101005.8029474503
101003.0104823759
101001.267949529
101000.122136957
100996.9196876746
100995.3179080823
)
;

boundaryField
{
    inlet
    {
        type            calculated;
        value           uniform 101324.9999875739;
    }
    outlet
    {
        type            calculated;
        value           uniform 100996.6265296339;
    }
    frontAndBack
    {
        type            empty;
    }
}


// ************************************************************************* //
