/*--------------------------------*- C++ -*----------------------------------*\
| =========                 |                                                 |
| \\      /  F ield         | OpenFOAM: The Open Source CFD Toolbox           |
|  \\    /   O peration     | Version:  v2012                                 |
|   \\  /    A nd           | Website:  www.openfoam.com                      |
|    \\/     M anipulation  |                                                 |
\*---------------------------------------------------------------------------*/
FoamFile
{
    version     2.0;
    format      ascii;
    class       volScalarField;
    location    "0.016";
    object      rho;
}
// * * * * * * * * * * * * * * * * * * * * * * * * * * * * * * * * * * * * * //

dimensions      [1 -3 0 0 0 0 0];


internalField   nonuniform List<scalar> 
1000
(
1.169206562632704
1.157776912555228
1.152403575714179
1.154144022198849
1.161560730818547
1.17199423413923
1.182539592968535
1.187400393245582
1.186230518657732
1.181590928068603
1.176262354034309
1.172700740305261
1.174742875234201
1.178703473479036
1.183307594194291
1.185628519252264
1.185366932179321
1.178757791117903
1.169875103222388
1.162633847725765
1.158125247650427
1.159539238416425
1.167984634428446
1.178496218216267
1.188863823443419
1.195705739780945
1.195682852190941
1.188758756779937
1.178928948500001
1.16900002954313
1.162564577937591
1.163145678530424
1.168123793070759
1.174515785276877
1.180609848322374
1.183116450527649
1.180797509428429
1.176723319279429
1.170594998105218
1.167515524058131
1.169108750785447
1.178771479479125
1.187184655260141
1.194009223263935
1.196801416124113
1.193980993455516
1.183850159435533
1.172256259087695
1.161354997648318
1.153674525115259
1.15181830805831
1.156602108136188
1.165873591646984
1.176432293053171
1.185013684603108
1.189065115588598
1.188630273176681
1.186844125603703
1.183448656631757
1.180885366567373
1.179576941645531
1.180990221188529
1.179644073829436
1.175332159362325
1.167927552873498
1.162018010595165
1.157922827471643
1.158449252286822
1.165952921180565
1.177026444197405
1.187779316616104
1.194818717759314
1.195433384654028
1.190651932071008
1.181831841093409
1.173326042063724
1.16456603183888
1.163242742266221
1.166458573081443
1.17237880036487
1.177472930276739
1.180994551074558
1.179683285430118
1.175891894212892
1.170821031584747
1.168439819455652
1.169667492478678
1.17848032043758
1.187428889747802
1.19396009448626
1.196809519706474
1.193479797991555
1.183104212494174
1.170951769613476
1.159883657198886
1.152950769864504
1.152587507375783
1.158551148429441
1.168223820102919
1.178294452588535
1.186555438076034
1.188983736155884
1.187064550335535
1.184106512016516
1.180171606388236
1.177122713049901
1.17638167036744
1.177891527725739
1.178174423387265
1.176644982970205
1.171262511859671
1.166086173844489
1.161080097972285
1.159653805871304
1.16413762850699
1.174583382409896
1.183869746498428
1.191511607851914
1.19387676540558
1.191386495215346
1.184667389392334
1.175200837772413
1.167276418704263
1.163143312077759
1.164494452939407
1.169367457848745
1.174274367030716
1.17826107228482
1.179339872377984
1.177502490324412
1.174888544588487
1.172856252182384
1.173636090039421
1.178154911408428
1.183370720269122
1.187710813298118
1.190107776278327
1.188415296522366
1.181126607507442
1.173297152547559
1.164581817890222
1.158795643837566
1.158517281751665
1.163071531011548
1.170960735799808
1.17726979919126
1.182807503387588
1.183420492961163
1.181745926260823
1.177011267013906
1.175955087569228
1.176358566622915
1.179047951695841
1.181099309472223
1.184474560687187
1.184635128560811
1.178625806678764
1.168578584852474
1.159945056508158
1.155401573979335
1.158062660334174
1.166751855656513
1.177838508375903
1.18883845876272
1.195630043517826
1.19534753606753
1.188484511020171
1.178407118962858
1.168539655680265
1.161146865739324
1.161731195405467
1.167200298593646
1.175586939548843
1.18191780082573
1.18487991051489
1.181857274027672
1.175694891195909
1.168875566813544
1.165227394602477
1.166567667583055
1.177065611773198
1.187346895781852
1.195369783608871
1.19708256336611
1.191401668276815
1.180087744171813
1.166577231368943
1.155456633596766
1.150463418564161
1.15278936923241
1.160931122938402
1.171318843003611
1.181109123644522
1.187803584448128
1.187912322769438
1.185091165272988
1.182227310350184
1.182072531552868
1.182627852584126
1.182342658195986
1.180454277183854
1.177491619479709
1.171896510652006
1.163493735573282
1.157529902190195
1.154526973397656
1.157836726271708
1.165349106798138
1.177506869368217
1.190187212544327
1.199295493338887
1.200776229941075
1.193402223778195
1.180976293610032
1.164693048263512
1.15150720579839
1.149734539395003
1.154459530577026
1.163172686293509
1.17294030852756
1.183444301203106
1.191387939259104
1.192347258093761
1.191063495531746
1.184551309518871
1.182568573278855
1.175873826155883
1.169964808090344
1.168150163994039
1.169762142737126
1.169530137427814
1.16850844653915
1.169532570470634
1.173360493938813
1.179449375597853
1.185885153274424
1.190996264116187
1.194388705190092
1.189794376132692
1.177024327808509
1.162040941728921
1.154548894224125
1.1503597685183
1.152574906178657
1.160276174914631
1.174948852856487
1.189556897308235
1.201300481041958
1.205435600732632
1.201460436622406
1.189393067759578
1.172115705581998
1.15665850150852
1.14815218223545
1.148460500583928
1.156459471532584
1.169669365244077
1.184012724077039
1.193677209639905
1.197428729550722
1.194570780373698
1.187075217890129
1.177528823710154
1.168480056886046
1.161845267917639
1.16172059262666
1.165153317796948
1.169664606562546
1.174152890498269
1.177538248757151
1.178105713887539
1.177561149508234
1.176306629684157
1.177383463660682
1.178856496151691
1.180308286953135
1.180011987616342
1.18197414971251
1.180293706684974
1.1779346567704
1.175603488940868
1.174672705649383
1.171547107600997
1.169789178442551
1.167462222153157
1.165975859577838
1.165492043459069
1.168144915062838
1.170503112624453
1.175194165421824
1.18024250522622
1.18455218766118
1.18789941938023
1.187276203149497
1.182300454081377
1.177908961624055
1.1697719394636
1.163822773846739
1.162098675979732
1.165380158363817
1.169052998345372
1.176594008441459
1.183512661320372
1.185007953146147
1.180666778464577
1.178285994603141
1.172814251512651
1.169817402111182
1.170285837735143
1.173555030005473
1.175645837841338
1.179045340879896
1.180062055821001
1.177554006349431
1.175282624285174
1.170684644860567
1.167440699166609
1.167299526183909
1.170214709271771
1.172973019204773
1.179920604712015
1.185726037719715
1.186177293810241
1.186621045891542
1.184715498418834
1.179287114444538
1.171560995872117
1.167051895992232
1.162856271246621
1.162738611599776
1.167836771385091
1.175815669214355
1.182100358162591
1.184914387658043
1.182485566774648
1.174993672863854
1.167234997989342
1.161572740262912
1.161128524566162
1.167446811835839
1.177258417156587
1.186315815385459
1.191930805833266
1.191107219702157
1.182444793496612
1.17085286632002
1.160073899866327
1.154033816533138
1.155455013021303
1.165191690927999
1.178889689694569
1.19037742056813
1.196675963815116
1.194706148917615
1.185728291768135
1.174771414543819
1.165177598623056
1.16081824620449
1.161755373269036
1.167071253214999
1.172799177261997
1.177110885311051
1.176910167418983
1.173346958723049
1.169162213414644
1.166777695757992
1.170514412032664
1.18016793653949
1.187989117509654
1.193838783048704
1.19470348162484
1.188078749303221
1.175449989193432
1.164141102442814
1.158513982856014
1.159476209751168
1.16479670196713
1.173316551624352
1.180205343343812
1.180590502500976
1.175729614218002
1.169541656954159
1.163496076287704
1.162890693036721
1.166513883713931
1.175302090990632
1.185116585623273
1.19040947207991
1.192849029429093
1.190630530240553
1.180750747398038
1.167251419851573
1.156345260613146
1.15008685282511
1.149494259219892
1.158013298762061
1.178069402445349
1.196994068763726
1.207634769174693
1.210759890470873
1.205211726729326
1.191134046714438
1.170722592170063
1.153491435968088
1.143741603738036
1.14010512673654
1.143163424786947
1.15311076921294
1.172086210444379
1.197127360166232
1.207930659131955
1.205710444903587
1.195117899841663
1.18427000815968
1.166492294823527
1.155327041704126
1.150697033703521
1.152990340268751
1.16097261861395
1.169639693141689
1.186594980875229
1.196425682029752
1.196123059449167
1.187281343833972
1.180195199332696
1.166921725508663
1.157187448066985
1.153491122292277
1.157441874910191
1.163291626406891
1.176414518756909
1.195174837594891
1.203910197695375
1.199415395414098
1.191170277946057
1.17976698379026
1.166326325142086
1.156374327786009
1.152838254811173
1.15629308689671
1.161724682828244
1.170368518541297
1.182414905534103
1.187280744590807
1.181823641169653
1.175400062133141
1.167305229986832
1.161120900499031
1.158944964104404
1.163085634905771
1.173132680336731
1.181958106737768
1.1898337416695
1.18848861176841
1.178963765537905
1.168859372830269
1.159035409473893
1.154190920546506
1.156253632611369
1.166400550203606
1.178045880396243
1.196707301243597
1.204580316722937
1.200368596199847
1.189896958316693
1.178333132523376
1.165301406962971
1.159424723470688
1.16015063743317
1.161618721239782
1.163235435269484
1.165917973399414
1.168567379776531
1.170870763817325
1.172783163648957
1.174277485426336
1.176257251918193
1.175089855455755
1.178091292020688
1.179123684784459
1.178148076222263
1.177473310723219
1.175195500479935
1.172052720720095
1.168730810312046
1.16637739198767
1.168002991737456
1.167539503113656
1.176073337240103
1.186450145745511
1.1892780879588
1.184652829532169
1.183047283965076
1.177566930822172
1.170609299010476
1.166427399143431
1.167390727606161
1.167615560128421
1.170565659834643
1.173308137595345
1.173239420335065
1.169546058209145
1.171101022566801
1.168075514334922
1.167663713955043
1.169919508783848
1.174708792873767
1.179185517427711
1.186249697613573
1.188133782025564
1.183341781076647
1.178872811330042
1.171647874325613
1.164835311042019
1.161269170436191
1.162099440540849
1.16857539904261
1.172861468890989
1.183436524322113
1.18823912076557
1.183290448941661
1.172355801603367
1.16585202220045
1.160146639023959
1.158805369150522
1.161266663345732
1.168490908598834
1.177627599434069
1.186029077390255
1.189773902173547
1.18415875119187
1.169890088559521
1.15915381854484
1.150885226399176
1.151323024885537
1.159799264720533
1.175232224745237
1.189686525180476
1.197442033848412
1.19572514309042
1.185023545757246
1.171439823596957
1.160077933013688
1.155107621123111
1.157251359517003
1.166654991836629
1.179816448546378
1.19109180072902
1.194451376238781
1.187223366208081
1.173158274954019
1.158535929267076
1.151330497210413
1.15560636293456
1.169263156589075
1.186092979520323
1.196813783156692
1.197482460409728
1.189056157377279
1.177566607995376
1.161763779715717
1.155028717765164
1.157248766012531
1.163891212320751
1.173672273792856
1.180283591550533
1.179098872172293
1.172916924533452
1.167267944659802
1.163830787536749
1.166214960200392
1.172772080981852
1.177061792113953
1.181581473203576
1.18081917236093
1.1771543039736
1.175694148803832
1.171043516535203
1.167372247652231
1.165610944729875
1.166845766290557
1.167191375091208
1.172004112100853
1.178013790689355
1.179663725437236
1.184560428474803
1.184005691485067
1.181713128352863
1.175958134304487
1.16918216540509
1.162945573463524
1.161243985334943
1.165859006246161
1.173615173064818
1.181125804028452
1.183132452580928
1.178611635630604
1.169731158340957
1.160770445654969
1.157655403964208
1.164176262303003
1.177076474345353
1.190157311835474
1.198901418488903
1.199229425289849
1.187652897500145
1.169635956219429
1.152902998675337
1.145307570675817
1.148730417039005
1.160086243727568
1.177846952132034
1.190133540878071
1.19119536999667
1.185039042040544
1.174613551018489
1.164769575477608
1.162801132974417
1.162230642958829
1.16532118886507
1.170846416264901
1.175648758771645
1.176827933627304
1.177619383896167
1.174993442438824
1.170966466429738
1.16847331946386
1.168640332592365
1.167350001028246
1.17045900223294
1.17340332333238
1.174757142769562
1.176271177970699
1.176657828153591
1.177514605099862
1.17909021734702
1.180615432653751
1.180151870407506
1.17751838979295
1.173253385752931
1.165550338789224
1.159036050771434
1.155549279005026
1.154820710182607
1.160778604230555
1.17011111501437
1.182812884278958
1.195622018489717
1.198607332276515
1.192688064572275
1.190593620477484
1.181832511253828
1.169431660797302
1.159985446193321
1.153993664523775
1.147929277684135
1.149086998059911
1.163025424915716
1.180785590263771
1.192615734524615
1.198406567129335
1.194653413509581
1.179346749332429
1.161873455421148
1.146899692948142
1.139484553263456
1.144663376993081
1.160988497116382
1.183003813036072
1.199406149926727
1.202628713334586
1.193413058010686
1.1744993674352
1.154270550899171
1.138762105453998
1.134282308292839
1.145122537613899
1.166696917384319
1.188962799475757
1.204599369028103
1.206800639379035
1.196659703355941
1.178873005862906
1.159203009456668
1.14451174231885
1.144478529211381
1.154866765842931
1.169638713987124
1.1832157006307
1.189940413222765
1.187636472736534
1.179512954301167
1.169026238018955
1.158194905241518
1.156756611897056
1.164873816863774
1.175064574442922
1.184743522806111
1.191158409260042
1.191029720232786
1.18402495748495
1.172403167381224
1.159343485320713
1.148133688854245
1.146617013019464
1.154350069812878
1.166658084644033
1.176692379144029
1.18476570418895
1.18561855671429
1.182586068216862
1.171564552880326
1.163642772905859
1.156454817930568
1.156673655447836
1.160596207223742
1.170949328876284
1.17496594448151
1.180645863236885
1.183723890687667
1.182476266598429
1.178410668824114
1.170599907993288
1.164940883916021
1.15936616515976
1.158653796546403
1.160849819774903
1.173269524319352
1.179096867901932
1.186378145515498
1.192306090315807
1.19347718869306
1.189727059786838
1.177365683594883
1.159159984240215
1.141561508475022
1.132143101539089
1.140207816032585
1.161164607682206
1.18275071994728
1.201156442274917
1.211817191707404
1.213114201056055
1.201968432010366
1.184173069623698
1.160329484494686
1.139414524447147
1.12687270925462
1.12678984455945
1.141204595062579
1.166663169279314
1.192798613792251
1.206607443398297
1.203746789412029
1.188447066087137
1.169173415763359
1.147442601773071
1.136189957267756
1.134853898215235
1.145548110171392
1.163847498072715
1.186236306224144
1.199430726265226
1.198141148896943
1.183594864976634
1.167818873155457
1.151596655143655
1.143135132913672
1.143071487946496
1.150778128965792
1.163605217503604
1.17708688657264
1.189547017138104
1.191012181155712
1.182726061692875
1.177113817798788
1.171253023198304
1.16824438833444
1.167532596410561
1.162772687575437
1.157091108951467
1.152675797957635
1.149479332906836
1.149035678960081
1.153116330336213
1.161907021902935
1.170864088447067
1.185586911349759
1.192679037813562
1.189355205872144
1.180698383380683
1.177930552003177
1.171768541884469
1.16932043777758
1.167381965590677
1.164040001717608
1.15848875644934
1.144650908621443
1.137462229166737
1.137604124330932
1.150161318009737
1.164342588140265
1.182041701394501
1.1899479140935
1.192486968124568
1.186414259365205
1.172736235286342
1.153853784305446
1.135081246373191
1.125488859986429
1.13093465198592
1.147718818675602
1.169152484451859
1.185501981322647
1.192351791518813
1.188903740072585
1.174463724456364
1.157737608773945
1.139976794230205
1.137327092773533
1.144841939724976
1.160346385575442
1.174440481700614
1.187746820644094
1.191474928963824
1.186492923554863
1.173015612583949
1.156518154383896
1.141156426953505
1.138095254816278
1.147011004576056
1.160607028325179
1.174855370225141
1.186212139882206
1.18825598032151
1.179936857003377
1.165308104554654
1.149707947139176
1.139124572619705
1.139651938640008
1.150742491183853
1.166224113610554
1.180136401597295
1.184304643754952
1.175205682032605
1.15850755472935
1.143416313977464
1.134792823466143
1.135802266689079
1.14567167162391
1.161726383307351
1.177242556682296
1.183542071436392
1.181659389943698
1.173094639269104
1.155763779398749
1.147228907943652
1.146500566934826
1.144775720784212
1.145154302987428
1.154011442243439
1.166267776990748
1.175722329473871
1.181981762742426
1.188545857058957
1.182439460016127
1.165771959819446
1.153580911667325
1.146396598301713
1.141674978656664
1.144901257804427
1.154609933688258
1.168749171753571
1.17419348713764
1.185966012661838
1.187620397747441
1.178049814623155
1.162660073362662
1.157614416425071
1.149460886974164
1.148653128304346
1.152113057152793
1.157652639513318
1.158658586629073
1.163938047588497
1.165378437523371
1.163317222675756
1.158981908574094
1.163289884078745
1.161883372754858
1.163812796880201
1.164489353736991
1.162857302562505
1.156104422079878
1.14770883979862
1.140486161667864
1.14132954659225
1.150306617301797
1.160866040263911
1.172386159017678
1.180649565816546
1.182044810892019
1.175582162358132
1.162138308073752
1.144230585932633
1.127468069413616
1.119071679694257
1.124332738541013
1.142227348496196
1.165099275067886
1.184237947063315
1.192428377547309
1.189054944422918
1.173652543735781
1.151313286818746
1.132609513893228
1.122627825857675
1.122840926690563
1.132923345281811
1.150308637084577
1.166184648001379
1.178078000406471
1.180146152382567
1.173000534062717
1.160708567051233
1.148596664842205
1.14084179824535
1.137787386042836
1.139200593089184
1.143038733579155
1.146320589741282
1.150031519910431
1.149691714552428
1.150297950221547
1.152652438866867
1.156818924635524
1.157045540199992
1.158706017479876
1.15318322594769
1.146051177762814
1.143164913738651
1.140541505174235
1.140939399727618
1.14579781712267
1.152727229408245
1.15516301665619
1.16052802349567
1.158978853628488
1.151122695100006
1.144447146533617
1.138974656696918
1.138597002239691
1.14477520247464
1.155352129405793
1.161329202487225
1.165648052015279
1.159718712631432
1.146253973728727
1.13844086938334
1.131671103220491
1.130149451853904
1.135913546825132
1.15053681371538
1.164245055783645
1.174182138265719
1.178272319656159
1.169792154943791
1.15057891438153
1.137870517246383
1.130083405839356
1.128040489846017
1.133168903736554
1.145645877093251
1.160160992475669
1.165149531405328
1.172391642442785
1.169765228104797
1.156861278447724
1.143925499534374
1.141987956057253
1.137213297760995
1.139539286110324
1.146858776011442
1.152494053346782
1.15506721420887
1.152158819884141
1.148051431843181
1.140160067124459
1.136505740585939
1.137343383603079
1.144108886668127
1.14857686043189
1.153679130953029
1.155650814383279
1.15348039895058
1.145946050000729
1.136531933656935
1.12873374747119
1.125881016876265
1.133610933668751
)
;

boundaryField
{
    inlet
    {
        type            calculated;
        value           uniform 1.176411716172193;
    }
    outlet
    {
        type            calculated;
        value           uniform 1.136434867023138;
    }
    frontAndBack
    {
        type            empty;
    }
}


// ************************************************************************* //
