/*--------------------------------*- C++ -*----------------------------------*\
| =========                 |                                                 |
| \\      /  F ield         | OpenFOAM: The Open Source CFD Toolbox           |
|  \\    /   O peration     | Version:  v2012                                 |
|   \\  /    A nd           | Website:  www.openfoam.com                      |
|    \\/     M anipulation  |                                                 |
\*---------------------------------------------------------------------------*/
FoamFile
{
    version     2.0;
    format      ascii;
    class       volScalarField;
    location    "0.016";
    object      T;
}
// * * * * * * * * * * * * * * * * * * * * * * * * * * * * * * * * * * * * * //

dimensions      [0 0 0 1 0 0 0];


internalField   nonuniform List<scalar> 
1000
(
299.2649139236187
298.0810579165943
297.5203191478515
297.6993709962371
298.4636225923088
299.5354675340166
300.6125112606919
301.1060430139116
300.9868403158769
300.5148362935096
299.9722991375447
299.6084851823591
299.8172484822528
300.2210196487362
300.6901086198763
300.9269337785741
300.900732373087
300.2276932599783
299.3194539850087
298.5763088218621
298.1125977849304
298.2584424667942
299.125206123808
300.198903842534
301.253814266425
301.9481281896942
301.9459886726204
301.2436068574303
300.2437439645785
299.2300778944457
298.5703313426951
298.6298959688088
299.1399224764938
299.7940420748711
300.4165446629205
300.6717697080278
300.4356549836021
300.0197858579109
299.3940461580386
299.0797077690606
299.2439823256038
300.2294679231686
301.0842036941379
301.775486590586
302.0579311546992
301.7729432274731
300.7439956030873
299.5606968129546
298.4435859611573
297.653850468768
297.4620146623414
297.9555568183679
298.9088361358201
299.9892359317186
300.8628962898317
301.273528476297
301.2291862452203
301.048062364676
300.7038564125006
300.4427822433128
300.3093426964916
300.4535189025357
300.3168999879859
299.8774861216007
299.1188616827597
298.5116771939362
298.0902652667301
298.1445881602801
298.9153704306491
300.0471617987151
301.1413576922553
301.8557474958568
301.9177865723966
301.4334747869531
300.5378760288698
299.671457029249
298.7752503894566
298.6384489365609
298.9674661715053
299.5734285084231
300.0943773857892
300.4538401058136
300.3205160816607
299.9332929791528
299.4151749681876
299.1723322095971
299.2989509274813
300.198557898504
301.1077769573649
301.7690917430857
302.0571462172118
301.7205181773251
300.6663863950276
299.425417126076
298.2902794698894
297.5770961046488
297.5397020196042
298.154047033933
299.147311219163
300.1770613296545
301.0180326131437
301.2638367483782
301.068750027381
300.7684289305803
300.3687208094657
300.057748246292
299.9816717864916
300.1354737487822
300.1648775471655
300.0093919299384
299.4587298263916
298.9277545710694
298.4134679270762
298.2669748239854
298.7285478937278
299.7971868032962
300.7426476514005
301.5183829995833
301.757957312191
301.506419944258
300.8239315242172
299.8595805161052
299.0497474561116
298.625490624758
298.7641554769663
299.2632662597621
299.765525359612
300.1730717447269
300.2826875378286
300.0945852401737
299.8272369231101
299.6201510593243
299.7002621499361
300.1613430081896
300.6910626184961
301.1316043342391
301.3754316765996
301.2040660304741
300.4617742839702
299.6621573384488
298.7704213827605
298.1772833334079
298.14859274245
298.6157571078609
299.4241712245237
300.0695859943181
300.6349751891274
300.6969447731627
300.5253313928418
300.042572396181
299.9354313214073
299.9768030967081
300.2506600486159
300.459124409888
300.8023942855748
300.8186900836964
300.2069908243934
299.1794761451207
298.2926292832316
297.8246874209843
298.0991622515922
298.9911238584224
300.1236385563706
301.2430662557834
301.932540426388
301.9042523155561
301.2079050567233
300.1827379327081
299.1753409548442
298.4174512612213
298.4773485768527
299.0373925504283
299.8951318826914
300.5412668493492
300.8426616856435
300.5352754112179
299.9062225572195
299.2091128915744
298.8361749615043
298.9746056682759
300.0472577430462
301.0925131448657
301.9047377711291
302.077032523312
301.5021598455035
300.3519339791088
298.970849941308
297.8278559659628
297.3123732644784
297.5533474164594
298.3922397691436
299.4580273270729
300.458066325227
301.139599920159
301.1506109395139
300.8636450112464
300.5725667971091
300.5570126732469
300.6136238612411
300.584593418997
300.3922467734811
300.0901045502641
299.518753317994
298.6562354821977
298.0424332941296
297.7329636266731
298.0747837684753
298.8470268121759
300.09002991763
301.3795035983716
302.301631830934
302.4506750168944
301.7053040678688
300.4441681158035
298.7804886396583
297.422934963233
297.2390454240217
297.7263480223507
298.6226245653085
299.6245108554422
300.6978871906452
301.506392881243
301.6034909273882
301.4717830219103
300.8095946889605
300.6100664335507
299.9320591256716
299.3270624301396
299.1390460734885
299.3027665926436
299.2806254239466
299.1769285354744
299.2831480297911
299.6754935387827
300.2964635482674
300.94988691477
301.4688036535875
301.812920330778
301.3491116681903
300.0515603368818
298.5165434906543
297.7440349286281
297.3108962987341
297.5405837183915
298.3355363232264
299.8413648414702
301.3277403586527
302.5143332599703
302.9304363170988
302.5310792357423
301.3106740458931
299.5510402544552
297.9645321604655
297.0862162159419
297.1180732624307
297.9442293174602
299.3015521754484
300.7659980338956
301.7470742346583
302.1261327119049
301.8375020354779
301.076955381859
300.1055097044259
299.1815836589415
298.5015275280488
298.4884293427603
298.8403674365877
299.3030763127356
299.7631031528963
300.1092837432525
300.1672083651534
300.1113835484151
299.9840720437036
300.0947438780618
300.2451398362878
300.3924141060401
300.3617663240324
300.5620923766425
300.3912939055171
300.1506985710056
299.9120048796763
299.8162782287278
299.4964642724091
299.3172054385765
299.0792815932909
298.9265776850597
298.8764173976426
299.1483247230648
299.3905324841772
299.8707735059064
300.3855563943904
300.8240797253117
301.1637612932658
301.1004735388184
300.5950115284351
300.1475394647675
299.315600876781
298.7054098570812
298.5282933304032
298.8658660497737
299.2425827659188
300.013787751445
300.7181049620334
300.8695217801301
300.4280524435059
300.185576870875
299.6268391937767
299.3200614258
299.367775405531
299.7023988418897
299.9166222078313
300.2639133015998
300.3677393331945
300.1120147058592
299.8799884867749
299.4099435630533
299.0775073586568
299.0628078671327
299.3614187231069
299.643896909575
300.3531841706776
300.9431689360335
300.9884285808747
301.0333120925536
300.8402886064669
300.288378197377
299.4972384132918
299.0345086310706
298.6039644736779
298.5919650194842
299.1153199159376
299.9309635918261
300.571440019896
300.8577445452353
300.6107832831037
299.8466668213289
299.0529031295578
298.4720485211026
298.426276347643
299.0747933026428
300.0776321403814
300.9999421904562
301.5704998462305
301.4873022060184
300.6068831339946
299.4229164652451
298.3166591420839
297.6947923333315
297.8420210263149
298.8438097025089
300.2440705432226
301.4114172491557
302.0493443512376
301.8506045325872
300.9405276000949
299.824424136869
298.8420277047477
298.3937689543212
298.4901499844708
299.0357362012593
299.6222764545903
300.0627924283581
300.0423313753104
299.6781062510909
299.2498743446886
299.0055541772312
299.3890184276357
300.3731449103088
301.1674951465233
301.7602070449506
301.8472441499642
301.1764459378617
299.8905477583985
298.7315765721293
298.1526523652827
298.251411343145
298.7982701180086
299.6712127768449
300.3739073785061
300.4131043273146
299.9175255865691
299.2845376538994
298.6641770715594
298.601951757367
298.9740839387092
299.8735019639915
300.8723646525192
301.4090996463575
301.6561234358426
301.4317518155459
300.4279418592735
299.0473105713855
297.9255467792044
297.2798911948819
297.2188675190785
298.0998182868422
300.1546203090116
302.0736154816777
303.1464550382825
303.4598525908468
302.9021689567493
301.4799157924586
299.3986091712032
297.6257964715713
296.6156051872596
296.2368273923231
296.5545082501734
297.5855246289194
299.5411684747162
302.0795462090134
303.1662878560062
302.9430095192906
301.8761010340317
300.7768330760937
298.9578116731281
297.8079446648105
297.3284585332999
297.5655423181416
298.3888020418939
299.2801997258057
301.007653175804
302.0012451634301
301.9695884483737
301.0755825693147
300.3560278153854
298.9981298255854
297.9967640798924
297.6141959458617
298.0217440026562
298.6239051397683
299.9723324068851
301.8801931335062
302.7595563194851
302.3042288990414
301.4693402741395
300.3121000700408
298.9372872130764
297.9112271090265
297.5440122147118
297.8999824684412
298.4586766037315
299.3493699094491
300.5815204575078
301.076012190691
300.5203085672598
299.8646868897879
299.0385544851314
298.4039518363919
298.1795036181761
298.6047521384081
299.6338637950635
300.5356505705485
301.3355471537155
301.1992608234358
300.2306002508084
299.1963520953552
298.1872378298521
297.6878976268818
297.9015789491118
298.9465288603066
300.1388892070265
302.029226908708
302.8220137173311
302.3980762549428
301.3395042239595
300.164643767236
298.8302821248606
298.2250753960144
298.2997030849315
298.4503356261648
298.6168161693199
298.8920221977503
299.1620717210801
299.3971627739978
299.5935015358098
299.7461528508638
299.9479364167639
299.8296595452372
300.1373696360723
300.2429320279008
300.1425620770565
300.0734405283027
299.8431890051946
299.5232900332178
299.1833657473638
298.9400250514623
299.1049242593742
299.0585083163101
299.933315142772
300.9900721187361
301.2747297341132
300.8055963754856
300.6448425319588
300.087493507118
299.3763800339063
298.9457744573977
299.0437144805553
299.0662469975502
299.3705739891729
299.6518906476848
299.6444233555316
299.264687958828
299.4227274710172
299.1134322477733
299.0712440078061
299.302601057797
299.7927043833442
300.2517886560976
300.9717172636002
301.1632809245573
300.6751702315009
300.2185095857215
299.4822299086401
298.7850109348755
298.4174491083951
298.50104932705
299.1654610052196
299.606017086967
300.6844489587921
301.1723728173733
300.6701681041245
299.5552873445116
298.8901528367069
298.3045184834383
298.1669899943851
298.4208715395133
299.1619723286535
300.0940770433117
300.9493881010646
301.3300029542646
300.7604197990871
299.3058200582174
298.201656503341
297.3480810896576
297.3945145819109
298.2695492354455
299.8520449826402
301.3237418096331
302.1088563067213
301.9358711927239
300.8501123895827
299.4637861830097
298.2974471961327
297.7848156106059
298.0062463414839
298.9729902023896
300.3186483356163
301.465154709618
301.8050703937884
301.0725638071394
299.6393236707639
298.1397282576179
297.396536444312
297.8383879545329
299.2414495263299
300.9574880152902
302.0430576036673
302.1097815858254
301.2579883730288
300.0902602226056
298.4695210136863
297.7752052208293
298.0036060632699
298.6866463694922
299.6893277331579
300.3632783951097
300.2419421289997
299.6107963183798
299.0329905673463
298.6802702477056
298.9251575405832
299.5970323397826
300.0358643099278
300.4966660858381
300.4192752640701
300.0459849644117
299.8967341778699
299.4216034692901
299.0455025211484
298.8638158321403
298.9898291125168
299.0263019005048
299.5204383631385
300.1340180499581
300.3010342985712
300.8006086716633
300.7461787615867
300.5128794336305
299.9234953401618
299.2292026797778
298.5895486328801
298.4138782711171
298.8867402258128
299.6795663837361
300.4464068067406
300.6508213390413
300.1900776286702
299.2817642049732
298.3626486325896
298.0420274712412
298.7125929637136
300.0306799618185
301.3607014629005
302.2470444494436
302.2805187942442
301.1091225593391
299.2727731506313
297.5513352091863
296.7650036626019
297.119692130424
298.2916085088025
300.1111577200398
301.3582655609882
301.4640247236882
300.8395050742054
299.7777995737804
298.7687143685538
298.5654126665821
298.506467457915
298.8247048313585
299.3912582575888
299.880805172255
300.0017119961292
300.0850267695296
299.8180483396206
299.4058194786097
299.1475605402482
299.1630577558723
299.0344720915827
299.3574664262147
299.6590624002262
299.7908950502159
299.9410571685187
299.9838925640639
300.0748968518989
300.2362460022044
300.3904462229934
300.3410604522776
300.0739109076221
299.6413865010497
298.8531498455081
298.1825517530199
297.8229618196345
297.7477131804143
298.3611885240502
299.3175342898812
300.6139965371
301.9112518081057
302.2116133424552
301.6135006203689
301.4008979225744
300.5111391300761
299.2433373447792
298.2700605132043
297.6503237661294
297.0240864772178
297.1452972355876
298.5836682195866
300.3970426614066
301.5985193967155
302.1857469422862
301.8065941161398
300.2496197302402
298.4599513841642
296.9152325061323
296.1448965657293
296.6828784429053
298.3685616399521
300.6199967023811
302.2807052615256
302.6041086281516
301.6743289771068
299.7502925094606
297.6741355929991
296.0675295747542
295.5984698952016
296.7252911917776
298.9511926487875
301.224601060871
302.8054082394934
303.0245503539035
302.0013558300125
300.1972939304524
298.1852204515225
296.668478012735
296.6632142645582
297.7340473146546
299.2533639203041
300.6427941651241
301.3268553292977
301.0933125260449
300.2639212955319
299.1932967878618
298.0879676026273
297.9389537453297
298.7672756786116
299.8074212277859
300.7980585100059
301.4547595767929
301.4418658452936
300.7249784428204
299.5347820901021
298.1990787131093
297.0500047812512
296.8924840536579
297.6859858535614
298.9485801056297
299.97909995011
300.8069920516739
300.8936723261517
300.5803552525946
299.4536339344414
298.645914049107
297.908735947182
297.9301950932809
298.3296349535055
299.3915368202758
299.8065746415101
300.3904588523048
300.7032963685791
300.5723773199035
300.1504089173089
299.3538972643497
298.7800521873338
298.2081116982581
298.131754661253
298.3520308829159
299.6260027140679
300.2273224474757
300.9725896008346
301.5747819426559
301.69183297563
301.3083893443662
300.0459025257805
298.1819300371496
296.3668905507146
295.3871813387106
296.2291659242835
298.3874187756119
300.5904810316912
302.4592355087869
303.5375219890834
303.6671100471877
302.5426725423984
300.7372580414279
298.2985508825327
296.1378657638134
294.8290841817014
294.8197914848724
296.3223219084747
298.9499052871072
301.6102204122644
303.0039382697707
302.7180083219783
301.1742717713125
299.2104370118316
296.9683637303789
295.7970021728131
295.6565466618266
296.7693448137223
298.6573004892867
300.9433192437457
302.2780208847345
302.1485061593044
300.6759700598096
299.0625327391239
297.3907693370883
296.5135478071684
296.5072562000485
297.3069052277251
298.6290660215928
300.0103634388153
301.2768636355157
301.425685503161
300.5860688850971
300.0122681295193
299.4123795692018
299.103739634794
299.0303188143338
298.5419084641808
297.9580295911668
297.5025973368784
297.1721670666358
297.1264756831192
297.5483115445875
298.453763163123
299.3740373578639
300.873810665386
301.5914120044957
301.2520297854541
300.3709930293485
300.0903376854657
299.4606750971384
299.2090360255139
299.0088319507926
298.6634788746316
298.088367910147
296.6606426938415
295.920497839668
295.9360408626302
297.2315267844647
298.6869755804839
300.5004449364405
301.3100664801669
301.5653448466157
300.9443159898531
299.5441245432833
297.6060123772508
295.6630200542306
294.6598506070595
295.2278221834933
296.968636584396
299.1776958687717
300.8516826712365
301.5477561143361
301.1981926998993
299.7260032851502
298.0123328573641
296.1815468365415
295.90439816248
296.6817055812716
298.2832196213087
299.734390796955
301.0953713687799
301.4714772670788
300.9617140768239
299.5822163349878
297.8914154914365
296.3099179548306
295.9899668681069
296.9100248897612
298.309617331179
299.7729799390278
300.9341955524827
301.1410600641292
300.2923115440341
298.7941562213923
297.1887947926884
296.0928869725006
296.1467079432729
297.2941174175449
298.8888791455751
300.311926829045
300.7345328221224
299.8063025022871
298.0939979988246
296.5362808745653
295.6402622710478
295.7454810321232
296.7698367350857
298.4280511434342
300.0186657842722
300.6607832890383
300.4699807700198
299.5974230425507
297.8223799174477
296.9343612670304
296.8596208226314
296.6850590620858
296.727668322676
297.6466334171316
298.9072097994567
299.8732974313816
300.5129809942456
301.1807812259885
300.560578431834
298.8564098225056
297.5987859296275
296.8569250750504
296.3667692745605
296.701769782745
297.7053423989979
299.1605036658909
299.7187933344649
300.916833465539
301.0847413172038
300.1111484954228
298.536282323081
298.0178511179643
297.1757362461096
297.0918016084369
297.4486861820011
298.0190415180608
298.1215728064026
298.6654850931023
298.8137774188735
298.6018440101313
298.1540534411675
298.5960887566503
298.4518312214285
298.649823695407
298.718704969794
298.5494927345597
297.8508731198219
296.9860036250952
296.2426695448043
296.3307948130015
297.2535805554023
298.3383504681451
299.5236703145105
300.3735632616797
300.5164620508061
299.8543033735959
298.4730349184295
296.6241738638384
294.8793993899923
293.997720797226
294.550837100272
296.4179308000623
298.779873326606
300.7349945120074
301.5642503721791
301.2237645175818
299.6564056238491
297.3602340122515
295.4161517861856
294.3697241392609
294.3915062882991
295.4453750157336
297.2511352957229
298.8861962159251
300.1023710661807
300.3127102225701
299.5838606623337
298.3231117334017
297.0729452062113
296.2689872337349
295.9526464928618
296.1009183181084
296.4996059712131
296.8384436056847
297.222488293497
297.1879560771764
297.2515730796449
297.4956679938679
297.9253978731185
297.9489869681444
298.1210571218792
297.5514099157879
296.8120527519132
296.5116173412121
296.2402806731294
296.2838973570242
296.7894613312147
297.5072043265513
297.7589025258646
298.3115447637468
298.1519458346655
297.3413219057778
296.6492196602995
296.0809453642531
296.0425315606937
296.6851232560059
297.7790690692324
298.39523561924
298.8395329782696
298.2305221768906
296.8405642887254
296.0277199382528
295.3225498302955
295.1649973643392
295.7681027275358
297.2876261242569
298.6986928971016
299.7169802582051
300.135186524342
299.2697454278513
297.2954769641023
295.9735939035183
295.1618142824879
294.9498865025033
295.4877570799929
296.7866209413164
298.2867091871699
298.8000505020572
299.5428041241826
299.275765276736
297.9511634419412
296.6129190925828
296.4118412908165
295.915848062331
296.1589974262977
296.9194503778159
297.5019449925821
297.7656413299697
297.4649293377293
297.041249702859
296.2226187723282
295.8400395733661
295.9245406113079
296.6267479986337
297.0907013897825
297.617052672534
297.8172729613948
297.5818371414885
296.7888826658771
295.8230061854044
295.072948708601
294.9359845764948
295.5658029715879
)
;

boundaryField
{
    inlet
    {
        type            fixedValue;
        value           uniform 300;
    }
    outlet
    {
        type            inletOutlet;
        inletValue      uniform 300;
        value           uniform 295.6265721523982;
    }
    frontAndBack
    {
        type            empty;
    }
}


// ************************************************************************* //
