/*--------------------------------*- C++ -*----------------------------------*\
| =========                 |                                                 |
| \\      /  F ield         | OpenFOAM: The Open Source CFD Toolbox           |
|  \\    /   O peration     | Version:  v2012                                 |
|   \\  /    A nd           | Website:  www.openfoam.com                      |
|    \\/     M anipulation  |                                                 |
\*---------------------------------------------------------------------------*/
FoamFile
{
    version     2.0;
    format      ascii;
    class       volVectorField;
    location    "0.016";
    object      UMean;
}
// * * * * * * * * * * * * * * * * * * * * * * * * * * * * * * * * * * * * * //

dimensions      [0 1 -1 0 0 0 0];


internalField   nonuniform List<vector> 
1000
(
(-0.006751570956654506 0 0)
(-0.004318007335846866 0 0)
(-0.001764898948037256 0 0)
(0.00155861161013137 0 0)
(0.003708457350777512 0 0)
(0.005850837124006194 0 0)
(0.004523526543901636 0 0)
(0.004490671194701997 0 0)
(0.002742429715749943 0 0)
(0.00156794040441621 0 0)
(0.00126630203031172 0 0)
(0.001637033055328021 0 0)
(0.001847537534878804 0 0)
(0.001386435069777593 0 0)
(0.0006395149884645551 0 0)
(0.001082670305208938 0 0)
(-0.002119534432504403 0 0)
(-0.001390236739659167 0 0)
(-0.001486986940344796 0 0)
(0.0002988491642892552 0 0)
(0.001833840568658876 0 0)
(0.004653377257250119 0 0)
(0.005870798299800154 0 0)
(0.006483090275223756 0 0)
(0.005529364584934233 0 0)
(0.003765375212556195 0 0)
(0.0007687569952849194 0 0)
(-0.001412564717860886 0 0)
(-0.002476502974588089 0 0)
(-0.002264391631072829 0 0)
(-0.0003814312397416175 0 0)
(0.0007862771962192316 0 0)
(0.002290721576806786 0 0)
(0.003314250169624549 0 0)
(0.003374595811517066 0 0)
(0.002363945513605012 0 0)
(0.001830370064636722 0 0)
(0.001627125312367542 0 0)
(0.002796366273144078 0 0)
(0.001765348275606423 0 0)
(0.004802963265743883 0 0)
(0.003768843233823097 0 0)
(0.003446610099631926 0 0)
(0.0006629607289540822 0 0)
(-0.0002994287702310775 0 0)
(-0.004660273906093718 0 0)
(-0.005251957957556877 0 0)
(-0.005629603353324314 0 0)
(-0.00340978268199453 0 0)
(-0.002157620752516886 0 0)
(0.001546336118169178 0 0)
(0.004192584968873697 0 0)
(0.006591676900109789 0 0)
(0.007290792004288609 0 0)
(0.006792647874192151 0 0)
(0.004812912555804626 0 0)
(0.003964665605193408 0 0)
(0.002039193236684062 0 0)
(0.0006036962738506345 0 0)
(0.0001809417576940498 0 0)
(-0.000940603585530232 0 0)
(-0.0005912365771996563 0 0)
(-0.002556626033164234 0 0)
(-0.00103059950585871 0 0)
(-0.00107029419566223 0 0)
(0.0006815169122501262 0 0)
(0.002663709879794928 0 0)
(0.005295089397745807 0 0)
(0.006664223079129024 0 0)
(0.007647764211128909 0 0)
(0.00709041230228667 0 0)
(0.00509455555013961 0 0)
(0.002399480783707567 0 0)
(-1.700634543110982e-05 0 0)
(-0.001107573957110376 0 0)
(-0.001110444122278962 0 0)
(-0.001199939027241037 0 0)
(0.002165476214094909 0 0)
(0.002330698354627519 0 0)
(0.003665763816658963 0 0)
(0.00414976172335061 0 0)
(0.003462908847047747 0 0)
(0.003524230092161277 0 0)
(0.002795365187649999 0 0)
(0.003782604921161999 0 0)
(0.003786155084722095 0 0)
(0.006297008286072637 0 0)
(0.005182548985771548 0 0)
(0.004735309256390113 0 0)
(0.002191624643236703 0 0)
(0.0008094436161615803 0 0)
(-0.003471541819988873 0 0)
(-0.003735547231323748 0 0)
(-0.003851112624898041 0 0)
(-0.002391860805216914 0 0)
(0.000161821921392174 0 0)
(0.003299431007410058 0 0)
(0.006041676073336574 0 0)
(0.008107549151522555 0 0)
(0.008534041464449572 0 0)
(0.008148598474933428 0 0)
(0.005306972302628788 0 0)
(0.004780297836063699 0 0)
(0.003533268326441911 0 0)
(0.002547099313927589 0 0)
(0.002128755787189602 0 0)
(0.001111835451682303 0 0)
(0.001590594198680147 0 0)
(0.001915469927869874 0 0)
(0.002004770502786305 0 0)
(0.001534193242304954 0 0)
(0.003708570784478274 0 0)
(0.004476690376646328 0 0)
(0.006617878386388546 0 0)
(0.009039220423136601 0 0)
(0.009206617711134924 0 0)
(0.009683695587433056 0 0)
(0.007898354536633369 0 0)
(0.005277697052320391 0 0)
(0.003562229859562031 0 0)
(0.002058276275572149 0 0)
(0.001702526581945174 0 0)
(0.00206090754104838 0 0)
(0.003734655904480907 0 0)
(0.005409546294402126 0 0)
(0.006717253205021297 0 0)
(0.006768445257505249 0 0)
(0.007822418614311943 0 0)
(0.006260587176260718 0 0)
(0.006100024835051329 0 0)
(0.007168939547767162 0 0)
(0.007431208269600866 0 0)
(0.00710975751749188 0 0)
(0.00774071383594139 0 0)
(0.006884712491752097 0 0)
(0.005204447523382921 0 0)
(0.003444436458365405 0 0)
(0.002173493228757582 0 0)
(0.0008216956966144705 0 0)
(0.0006147433157572987 0 0)
(0.001937776963767439 0 0)
(0.004191442307688764 0 0)
(0.006173535857610595 0 0)
(0.007778687391206585 0 0)
(0.00967224483944084 0 0)
(0.01077486150594815 0 0)
(0.009204915916629411 0 0)
(0.008686395078079303 0 0)
(0.008214766035054758 0 0)
(0.007453035478469993 0 0)
(0.007329724017570575 0 0)
(0.007523087606449951 0 0)
(0.005984572130260495 0 0)
(0.006760146319290311 0 0)
(0.00592916705277074 0 0)
(0.003699956788545073 0 0)
(0.003977640814044602 0 0)
(0.004235715430800683 0 0)
(0.005746372205466632 0 0)
(0.008165384419938368 0 0)
(0.0115376086611701 0 0)
(0.01232027059699136 0 0)
(0.01354985738187062 0 0)
(0.01260026424530133 0 0)
(0.01052619074375453 0 0)
(0.007885207247030155 0 0)
(0.005729766507492099 0 0)
(0.004766379248113886 0 0)
(0.005892841673640658 0 0)
(0.006407734690559665 0 0)
(0.008303217621222719 0 0)
(0.01033289434709454 0 0)
(0.0102854846269256 0 0)
(0.01065895892843761 0 0)
(0.01020810521175477 0 0)
(0.008225873418855653 0 0)
(0.009103852461717989 0 0)
(0.009681547441546296 0 0)
(0.008680029845124655 0 0)
(0.01271865829024599 0 0)
(0.01197029762571857 0 0)
(0.01082093101517414 0 0)
(0.009764299462089284 0 0)
(0.006977243636464072 0 0)
(0.003824647209561887 0 0)
(0.002845569529057821 0 0)
(0.0032133984258075 0 0)
(0.00578430310948414 0 0)
(0.009594071779235634 0 0)
(0.01076403402497037 0 0)
(0.01527788570637601 0 0)
(0.01575750518698042 0 0)
(0.01575453930465897 0 0)
(0.01595564777677234 0 0)
(0.01251932996154598 0 0)
(0.01254441940845194 0 0)
(0.01173147960041815 0 0)
(0.009812940480387574 0 0)
(0.009699135503725777 0 0)
(0.008373407270364263 0 0)
(0.007610325636052735 0 0)
(0.00760281977234967 0 0)
(0.007535903771028415 0 0)
(0.008495409556269658 0 0)
(0.01132141556282759 0 0)
(0.01379466462458185 0 0)
(0.01621828770935692 0 0)
(0.01914675495495909 0 0)
(0.01849598343321395 0 0)
(0.01911792399903847 0 0)
(0.01648579870107314 0 0)
(0.01260807804270225 0 0)
(0.009371987143209559 0 0)
(0.008856078855784124 0 0)
(0.008250280469490853 0 0)
(0.01103275820109456 0 0)
(0.01551942214437193 0 0)
(0.01696497989002224 0 0)
(0.02016856854663881 0 0)
(0.02127889556803875 0 0)
(0.02150373151209884 0 0)
(0.02022312110772896 0 0)
(0.0183170313762811 0 0)
(0.01599495630563027 0 0)
(0.01516969462270302 0 0)
(0.01389598762634827 0 0)
(0.01253442459911992 0 0)
(0.01418462216920514 0 0)
(0.013511104047216 0 0)
(0.01536911130278367 0 0)
(0.01523113605696699 0 0)
(0.01785271845980501 0 0)
(0.01844004716599794 0 0)
(0.01973622171129626 0 0)
(0.01956376535448111 0 0)
(0.01906039790114042 0 0)
(0.01741096802781083 0 0)
(0.01490086691095506 0 0)
(0.01332781644190052 0 0)
(0.01221758494156259 0 0)
(0.01169137362959768 0 0)
(0.01488967995855509 0 0)
(0.01840072668923175 0 0)
(0.02208117268776692 0 0)
(0.02414123413733261 0 0)
(0.0257425770286291 0 0)
(0.02487582180583172 0 0)
(0.02272950393543174 0 0)
(0.01854862874268419 0 0)
(0.01567033392899066 0 0)
(0.01255680028922165 0 0)
(0.01201775384260102 0 0)
(0.01387301845995302 0 0)
(0.01653962606816362 0 0)
(0.02090009563486593 0 0)
(0.02388798822588781 0 0)
(0.02567367951801208 0 0)
(0.02553075261280131 0 0)
(0.02404648831495932 0 0)
(0.02170512342130285 0 0)
(0.01913611218716591 0 0)
(0.01683923266244414 0 0)
(0.01645913500552454 0 0)
(0.0168817807881911 0 0)
(0.01811409714762496 0 0)
(0.02035604979942945 0 0)
(0.02156390395254858 0 0)
(0.02300654291617629 0 0)
(0.02409816373134222 0 0)
(0.02364822676413831 0 0)
(0.02416024482351379 0 0)
(0.02361080048793733 0 0)
(0.02380865425283266 0 0)
(0.02314986084796996 0 0)
(0.02359249891163677 0 0)
(0.02224953650937489 0 0)
(0.02154505428283641 0 0)
(0.02157739502999808 0 0)
(0.02077101169984844 0 0)
(0.02039640857256712 0 0)
(0.02088240703844755 0 0)
(0.02103328974332334 0 0)
(0.0215751488958822 0 0)
(0.02294629968803694 0 0)
(0.02213771727926075 0 0)
(0.024717054153726 0 0)
(0.02582839475917119 0 0)
(0.02709911988927834 0 0)
(0.02868087149763362 0 0)
(0.02775378613104188 0 0)
(0.02870864763996404 0 0)
(0.02753429774129943 0 0)
(0.0262933648809897 0 0)
(0.02441252039978869 0 0)
(0.02337808725222856 0 0)
(0.02285063069961194 0 0)
(0.02313303490239799 0 0)
(0.02493076469988713 0 0)
(0.02626182568560343 0 0)
(0.02851065020881088 0 0)
(0.02968568771828479 0 0)
(0.03069610306449483 0 0)
(0.02868777090623936 0 0)
(0.02869357114937388 0 0)
(0.02742710245463146 0 0)
(0.0268012879723159 0 0)
(0.02787069423840057 0 0)
(0.02750359989971576 0 0)
(0.02911755613158314 0 0)
(0.02993853378342982 0 0)
(0.02973972364930271 0 0)
(0.02964696209151937 0 0)
(0.02933905641386356 0 0)
(0.02880033167281894 0 0)
(0.02935260988301878 0 0)
(0.02859797376949458 0 0)
(0.03084428761295977 0 0)
(0.03128215820064952 0 0)
(0.03284766660829599 0 0)
(0.03374246313472787 0 0)
(0.03271034956041526 0 0)
(0.0325210121213477 0 0)
(0.03036682061019124 0 0)
(0.02937021724027455 0 0)
(0.02883048490111258 0 0)
(0.02719919924711611 0 0)
(0.02779353573161046 0 0)
(0.0292299354048414 0 0)
(0.03083119819294522 0 0)
(0.03212250241728386 0 0)
(0.03370923081181557 0 0)
(0.03425123134289471 0 0)
(0.03369383879022247 0 0)
(0.03328064229149146 0 0)
(0.03188301275277587 0 0)
(0.0319716356187114 0 0)
(0.03216654532854848 0 0)
(0.03448215772232324 0 0)
(0.03577711360371234 0 0)
(0.03815506493463966 0 0)
(0.03757300919942359 0 0)
(0.03753270260484248 0 0)
(0.03564665037104119 0 0)
(0.0338774616033853 0 0)
(0.03200819190959058 0 0)
(0.03223969111609937 0 0)
(0.03400666426494663 0 0)
(0.03641414232502609 0 0)
(0.03956010627505305 0 0)
(0.0411628947027189 0 0)
(0.04203169003093785 0 0)
(0.04080465508814821 0 0)
(0.03888159386615449 0 0)
(0.03597635378562485 0 0)
(0.03411242027500178 0 0)
(0.0336147077733402 0 0)
(0.03460458774358886 0 0)
(0.03636302749527804 0 0)
(0.03865701740089653 0 0)
(0.04011281663583532 0 0)
(0.04116493081155934 0 0)
(0.04138277848434706 0 0)
(0.04097507091861396 0 0)
(0.04191163497342942 0 0)
(0.04154829079131973 0 0)
(0.04338026948583702 0 0)
(0.04402926498588241 0 0)
(0.04380232976626452 0 0)
(0.04348284732292924 0 0)
(0.04053713376317182 0 0)
(0.03911862645518372 0 0)
(0.03657204627809721 0 0)
(0.03609833679655323 0 0)
(0.03706531050858884 0 0)
(0.03890362742717628 0 0)
(0.0415871659660204 0 0)
(0.04389647847777837 0 0)
(0.04390642142682275 0 0)
(0.04350958690956196 0 0)
(0.04387123923897496 0 0)
(0.04342805981454343 0 0)
(0.04359663297487705 0 0)
(0.04538331203257802 0 0)
(0.0467198962583462 0 0)
(0.04892492494794218 0 0)
(0.04877375080389242 0 0)
(0.0492048618516986 0 0)
(0.04638681970261099 0 0)
(0.04537377110486818 0 0)
(0.04334922280329996 0 0)
(0.04155920766919106 0 0)
(0.04199904954188591 0 0)
(0.04415497918280161 0 0)
(0.0478505141721099 0 0)
(0.05053601126937377 0 0)
(0.05407815548400743 0 0)
(0.05482914043929717 0 0)
(0.05306445222142101 0 0)
(0.04968820242289954 0 0)
(0.0456296372255364 0 0)
(0.04143286484251538 0 0)
(0.03864088416970021 0 0)
(0.03811017649381607 0 0)
(0.0406627434779992 0 0)
(0.04401977358165433 0 0)
(0.04932432643288108 0 0)
(0.0532927914630237 0 0)
(0.05816620656315299 0 0)
(0.06017595634815671 0 0)
(0.05746212833984447 0 0)
(0.05499162637565247 0 0)
(0.04977677020797071 0 0)
(0.04691071303090986 0 0)
(0.04558762413437648 0 0)
(0.04532470146522324 0 0)
(0.04810696059685081 0 0)
(0.05029073886467306 0 0)
(0.05487836131268756 0 0)
(0.05809332507500088 0 0)
(0.0592175504826568 0 0)
(0.05759028017904493 0 0)
(0.05598090751303565 0 0)
(0.05303172810736525 0 0)
(0.05183429931085447 0 0)
(0.04992336097805454 0 0)
(0.05034323335947392 0 0)
(0.05311316202771128 0 0)
(0.05557643180242947 0 0)
(0.05905464594677343 0 0)
(0.06176176593999964 0 0)
(0.06143204708888653 0 0)
(0.06113496780317838 0 0)
(0.05718774544099099 0 0)
(0.05405891958446024 0 0)
(0.05020134063353168 0 0)
(0.05016367024908645 0 0)
(0.05125948617286831 0 0)
(0.05349173809059345 0 0)
(0.05553515770774991 0 0)
(0.05960360578580839 0 0)
(0.06230140289330823 0 0)
(0.06377036524806824 0 0)
(0.06244911258483891 0 0)
(0.06199035867232509 0 0)
(0.05995230675276959 0 0)
(0.05979920373457482 0 0)
(0.06074883932095716 0 0)
(0.06308422353935415 0 0)
(0.06430442724153973 0 0)
(0.06795392145321612 0 0)
(0.06746831854073015 0 0)
(0.06909582932407032 0 0)
(0.06613668020677832 0 0)
(0.06503949921161935 0 0)
(0.06352735253097877 0 0)
(0.06340065220870435 0 0)
(0.06655698792288471 0 0)
(0.06826053487055928 0 0)
(0.07134881886543097 0 0)
(0.07270672862691821 0 0)
(0.07396343635204621 0 0)
(0.07260109297891192 0 0)
(0.06940810859797505 0 0)
(0.06509470809341598 0 0)
(0.06272524568889366 0 0)
(0.06112873170868555 0 0)
(0.06384788960957029 0 0)
(0.06413739877584838 0 0)
(0.06731595729304432 0 0)
(0.06908077642289964 0 0)
(0.07086679401034393 0 0)
(0.07330340977717874 0 0)
(0.07325681866550174 0 0)
(0.07485813380776191 0 0)
(0.07541298641726288 0 0)
(0.07497696754443917 0 0)
(0.07580676338486411 0 0)
(0.07476729918381918 0 0)
(0.07554510060816085 0 0)
(0.07643409303941981 0 0)
(0.07341037002391611 0 0)
(0.0742436806291322 0 0)
(0.07317118731879278 0 0)
(0.07635754108110261 0 0)
(0.07527351117362244 0 0)
(0.07694661634494096 0 0)
(0.0788913419319537 0 0)
(0.08024566407281786 0 0)
(0.08041042056161399 0 0)
(0.07919141574159005 0 0)
(0.07781929604788106 0 0)
(0.07539626149261613 0 0)
(0.07506833243798941 0 0)
(0.07423247909105454 0 0)
(0.07577139802610089 0 0)
(0.07564891378902056 0 0)
(0.07933963161019586 0 0)
(0.0782686232296928 0 0)
(0.08195357628106374 0 0)
(0.07919974158095569 0 0)
(0.08211336435291561 0 0)
(0.07966235002967086 0 0)
(0.08341268812968992 0 0)
(0.08259761287386222 0 0)
(0.08534642328611534 0 0)
(0.08462931791523466 0 0)
(0.08623753537060307 0 0)
(0.08593252582829509 0 0)
(0.0843322664559424 0 0)
(0.0837807158341945 0 0)
(0.08178231487809309 0 0)
(0.08017154506276336 0 0)
(0.08144742703557052 0 0)
(0.08296589321996395 0 0)
(0.0850052028018372 0 0)
(0.08661857218322423 0 0)
(0.0891683651004785 0 0)
(0.08870689726446071 0 0)
(0.08999202376919528 0 0)
(0.08661961251592766 0 0)
(0.08663734545994056 0 0)
(0.08498215512236126 0 0)
(0.08576460512083568 0 0)
(0.0894119773724302 0 0)
(0.08955953999670037 0 0)
(0.0950135084912167 0 0)
(0.09356113842590484 0 0)
(0.09733544026296323 0 0)
(0.09422352681779032 0 0)
(0.09309546179501535 0 0)
(0.09215069217947092 0 0)
(0.09165418114294407 0 0)
(0.09274919615584803 0 0)
(0.09649706427281513 0 0)
(0.0986624270133802 0 0)
(0.1033115483279766 0 0)
(0.1022116787556913 0 0)
(0.1032056546763323 0 0)
(0.09981610831385175 0 0)
(0.09768281775602969 0 0)
(0.09580931233066819 0 0)
(0.09523365390198606 0 0)
(0.0968006470824701 0 0)
(0.09951327805598907 0 0)
(0.1018553597974849 0 0)
(0.1037231701696376 0 0)
(0.1051828159821523 0 0)
(0.102505057812656 0 0)
(0.1013299587225928 0 0)
(0.09918116609440157 0 0)
(0.09900371366200622 0 0)
(0.100382634235613 0 0)
(0.1023866317128009 0 0)
(0.1050403493487985 0 0)
(0.1085283720738956 0 0)
(0.1075085895147187 0 0)
(0.1056418345999388 0 0)
(0.1023242691215797 0 0)
(0.09945682810682471 0 0)
(0.09975901946170394 0 0)
(0.1003028485732359 0 0)
(0.1027596031714903 0 0)
(0.1049957562737739 0 0)
(0.1076815029858504 0 0)
(0.1095067009473653 0 0)
(0.1082668655040252 0 0)
(0.107922927931703 0 0)
(0.1076288825115121 0 0)
(0.1080189008821681 0 0)
(0.1105080861973489 0 0)
(0.1110285425138113 0 0)
(0.1129746222197569 0 0)
(0.1129806769684359 0 0)
(0.1119080891026386 0 0)
(0.1114338203280478 0 0)
(0.1109857763973387 0 0)
(0.1118167328373128 0 0)
(0.1107026648969949 0 0)
(0.1129809187595751 0 0)
(0.1136108585648199 0 0)
(0.1160692667631614 0 0)
(0.1178449610388241 0 0)
(0.1154319556819513 0 0)
(0.1174283985040474 0 0)
(0.1165511292585575 0 0)
(0.1172037941769278 0 0)
(0.1145194530942372 0 0)
(0.1138871852812601 0 0)
(0.1131363017261135 0 0)
(0.1156518847974626 0 0)
(0.1167474959165614 0 0)
(0.1173225295957667 0 0)
(0.1193520722113987 0 0)
(0.120590537750017 0 0)
(0.1201934704490649 0 0)
(0.1198347048121163 0 0)
(0.1188569247272256 0 0)
(0.1186410534791345 0 0)
(0.1207243531942762 0 0)
(0.1230705735481947 0 0)
(0.1242473514566408 0 0)
(0.1254487671326877 0 0)
(0.124253946508188 0 0)
(0.1219663287612148 0 0)
(0.1190264686856673 0 0)
(0.115471098680231 0 0)
(0.1174682265097671 0 0)
(0.1181927230099019 0 0)
(0.1226478206343177 0 0)
(0.1253704313361631 0 0)
(0.1300866888483432 0 0)
(0.1299082004839451 0 0)
(0.1286373529110898 0 0)
(0.1276807041962648 0 0)
(0.1245762214170702 0 0)
(0.1262321968396887 0 0)
(0.1251951678474371 0 0)
(0.1278426735677607 0 0)
(0.1295915924186844 0 0)
(0.1310971386632272 0 0)
(0.1316907920908607 0 0)
(0.1322686234017962 0 0)
(0.1319712083506715 0 0)
(0.1324631779955495 0 0)
(0.1321259782371357 0 0)
(0.1328313924479221 0 0)
(0.1338079412770132 0 0)
(0.1358607711439311 0 0)
(0.1361131094879225 0 0)
(0.1363268816373934 0 0)
(0.1371764845130146 0 0)
(0.1375530659489136 0 0)
(0.1371754332218489 0 0)
(0.1368308768788533 0 0)
(0.1380333038699404 0 0)
(0.1375555699903809 0 0)
(0.1376185660936149 0 0)
(0.1371695100384458 0 0)
(0.1358297899511196 0 0)
(0.1362296873661162 0 0)
(0.1366872515881754 0 0)
(0.1389248673899231 0 0)
(0.1417034088716637 0 0)
(0.1442022404058541 0 0)
(0.1456281687831468 0 0)
(0.1487813731405873 0 0)
(0.1484994528862222 0 0)
(0.145732673955958 0 0)
(0.1434892137676931 0 0)
(0.1403384552747572 0 0)
(0.1386032385498982 0 0)
(0.1382626251643131 0 0)
(0.1378784817912536 0 0)
(0.1389660673881898 0 0)
(0.1423160515043033 0 0)
(0.1462923414408533 0 0)
(0.1483231120563588 0 0)
(0.1526083710649008 0 0)
(0.1511764041334506 0 0)
(0.1513804766533459 0 0)
(0.1485537375229034 0 0)
(0.1447102079220417 0 0)
(0.1442488207791452 0 0)
(0.1448256667042973 0 0)
(0.1487221445039704 0 0)
(0.1524390357235515 0 0)
(0.1574488452610814 0 0)
(0.15994566332493 0 0)
(0.1609386293051369 0 0)
(0.1585040705778684 0 0)
(0.1551719181511886 0 0)
(0.1528323513449256 0 0)
(0.1510535223783163 0 0)
(0.1530279988940202 0 0)
(0.1568452536443513 0 0)
(0.1622531751065522 0 0)
(0.1665035962261948 0 0)
(0.170194691485391 0 0)
(0.1700831200459413 0 0)
(0.1665924923594982 0 0)
(0.1641729577779034 0 0)
(0.1588945686064054 0 0)
(0.1585718605904351 0 0)
(0.159521243180886 0 0)
(0.1623231874986835 0 0)
(0.1661314559370184 0 0)
(0.1699544717047326 0 0)
(0.1712987551401738 0 0)
(0.1722308072328831 0 0)
(0.1703556802297314 0 0)
(0.1694004856211754 0 0)
(0.1682599544495464 0 0)
(0.1678727336575334 0 0)
(0.169453833318944 0 0)
(0.1731868540998976 0 0)
(0.1742688355769094 0 0)
(0.1737434941137495 0 0)
(0.1744643388305611 0 0)
(0.1733369581180042 0 0)
(0.1716315088988805 0 0)
(0.170053883465947 0 0)
(0.1693353960862291 0 0)
(0.1713364396246829 0 0)
(0.1729884396900716 0 0)
(0.1800733415686627 0 0)
(0.1805182175608215 0 0)
(0.182773107074001 0 0)
(0.1837117784113047 0 0)
(0.1837689723320723 0 0)
(0.1826907734607798 0 0)
(0.18106904443123 0 0)
(0.1818507836215668 0 0)
(0.1817457550616258 0 0)
(0.1858786302104001 0 0)
(0.1860667966133302 0 0)
(0.1887478136111997 0 0)
(0.1900453574801914 0 0)
(0.1911605352536792 0 0)
(0.1917171187769572 0 0)
(0.1904586326185124 0 0)
(0.1901032005610816 0 0)
(0.1894825426128006 0 0)
(0.190808863831312 0 0)
(0.1903776892734251 0 0)
(0.1928604219445255 0 0)
(0.1940978523451486 0 0)
(0.1958822262435982 0 0)
(0.1972550592717884 0 0)
(0.1983568805555373 0 0)
(0.1966777480041841 0 0)
(0.1954427034126331 0 0)
(0.1946580777647624 0 0)
(0.1919653688372858 0 0)
(0.1907894363757389 0 0)
(0.1926382815585249 0 0)
(0.1968116189833224 0 0)
(0.2010823122049342 0 0)
(0.206849285283091 0 0)
(0.2083314030055033 0 0)
(0.2102667843384185 0 0)
(0.2075783917077633 0 0)
(0.2056489176808267 0 0)
(0.1991768682139742 0 0)
(0.1950544088792205 0 0)
(0.1946153593846079 0 0)
(0.1940878826905721 0 0)
(0.1991106830325333 0 0)
(0.2019185483043153 0 0)
(0.2096971577894575 0 0)
(0.2157486237815936 0 0)
(0.2191575607369354 0 0)
(0.2188162670134304 0 0)
(0.214783662718682 0 0)
(0.2108929411588951 0 0)
(0.2079168372426808 0 0)
(0.2091661946486135 0 0)
(0.2107573128104858 0 0)
(0.2145954702108803 0 0)
(0.2212589825314861 0 0)
(0.226535713695878 0 0)
(0.2293537255877151 0 0)
(0.229741928115877 0 0)
(0.2255410814434756 0 0)
(0.2243261342828934 0 0)
(0.2208291771700315 0 0)
(0.2225155072834706 0 0)
(0.2222695450352069 0 0)
(0.228799953364838 0 0)
(0.2311889780270721 0 0)
(0.2371617612627685 0 0)
(0.2400263911542883 0 0)
(0.2382885836147433 0 0)
(0.2399966670266494 0 0)
(0.2350298726910884 0 0)
(0.2364544148079799 0 0)
(0.2344919021763633 0 0)
(0.2339235461132979 0 0)
(0.2365604350517681 0 0)
(0.2365283745087877 0 0)
(0.2376413244958355 0 0)
(0.2420639450735211 0 0)
(0.2422793263653361 0 0)
(0.2481094501558047 0 0)
(0.2501481891211737 0 0)
(0.2542574057432545 0 0)
(0.2557975260241747 0 0)
(0.2579484935861201 0 0)
(0.2584150906450358 0 0)
(0.2567943417703905 0 0)
(0.252614689069118 0 0)
(0.2513792341551685 0 0)
(0.2507411489755936 0 0)
(0.2523180962856816 0 0)
(0.2532413337010466 0 0)
(0.2547564382337965 0 0)
(0.2554734951716229 0 0)
(0.2577801663500772 0 0)
(0.2635518874606443 0 0)
(0.2646041406400569 0 0)
(0.2716419452917833 0 0)
(0.2749365622367623 0 0)
(0.2781158942279713 0 0)
(0.2788302300306739 0 0)
(0.2748554443865039 0 0)
(0.2759633109751067 0 0)
(0.2728105738712512 0 0)
(0.2742453198705569 0 0)
(0.2744549991795324 0 0)
(0.2786226545047225 0 0)
(0.2838728458785365 0 0)
(0.2907899166196831 0 0)
(0.2968248055984778 0 0)
(0.2990831779685555 0 0)
(0.2983975271164003 0 0)
(0.2958584869656118 0 0)
(0.2960156387556515 0 0)
(0.2950353716200865 0 0)
(0.2965111328159651 0 0)
(0.2996857011642847 0 0)
(0.3037490528194985 0 0)
(0.3087632467822569 0 0)
(0.3105648316100407 0 0)
(0.314537830735822 0 0)
(0.310948541905709 0 0)
(0.3110170547388029 0 0)
(0.3103075422620182 0 0)
(0.3096996702826404 0 0)
(0.3111501232175228 0 0)
(0.3137540748256843 0 0)
(0.3199937466577686 0 0)
(0.3231411355705407 0 0)
(0.325426865270306 0 0)
(0.3286544076027677 0 0)
(0.3262074991357212 0 0)
(0.3240772930861922 0 0)
(0.3256638338012828 0 0)
(0.3249132729842757 0 0)
(0.3297968954595454 0 0)
(0.3287890507908602 0 0)
(0.3363674850186372 0 0)
(0.3409486400591675 0 0)
(0.3443775056894698 0 0)
(0.3434440240621948 0 0)
(0.3424834328943045 0 0)
(0.341096421158998 0 0)
(0.3433063494774398 0 0)
(0.3468280872284797 0 0)
(0.3512320369221905 0 0)
(0.3560002045348307 0 0)
(0.3617856186362689 0 0)
(0.3660567558928354 0 0)
(0.3677897168827058 0 0)
(0.3640037615568172 0 0)
(0.3645582149986704 0 0)
(0.3639680817048939 0 0)
(0.3646328473534464 0 0)
(0.3690818871313657 0 0)
(0.3742069440935287 0 0)
(0.376631047028696 0 0)
(0.3796837829362488 0 0)
(0.3854361325392559 0 0)
(0.3879972451649669 0 0)
(0.3895184354574279 0 0)
(0.3880374890311282 0 0)
(0.3862417353350625 0 0)
(0.3854532175618066 0 0)
(0.3863537792734856 0 0)
(0.3867276077022861 0 0)
(0.3906225852980147 0 0)
(0.3958975699308447 0 0)
(0.399588998894893 0 0)
(0.4047129900797738 0 0)
(0.4066330817146706 0 0)
(0.4058269620184682 0 0)
(0.4080030912486095 0 0)
(0.4043753518641389 0 0)
(0.4038270080872341 0 0)
(0.4046815537911779 0 0)
(0.4055660143359698 0 0)
(0.4091796304298135 0 0)
(0.4142378208017491 0 0)
(0.4167854734803688 0 0)
(0.4206206706661301 0 0)
(0.4216684005878102 0 0)
(0.4250305400991586 0 0)
(0.4258488491255565 0 0)
(0.4273800095919997 0 0)
(0.4292260301591766 0 0)
(0.4310550185016943 0 0)
(0.4319354231415712 0 0)
(0.435698732174371 0 0)
(0.4356937995971081 0 0)
(0.439593587772882 0 0)
(0.4415261911064881 0 0)
(0.4444062039544925 0 0)
(0.4466871041543401 0 0)
(0.4530586250424734 0 0)
(0.456897739440692 0 0)
(0.4604462890701993 0 0)
(0.4605113655265723 0 0)
(0.4615125560694459 0 0)
(0.4595784870701969 0 0)
(0.4593829886719131 0 0)
(0.4631386353256993 0 0)
(0.4640243016745519 0 0)
(0.4707781169479535 0 0)
(0.4765272138733846 0 0)
(0.4843560249003385 0 0)
(0.4907153800627474 0 0)
(0.4937440350241221 0 0)
(0.4930467414366573 0 0)
(0.4931762882298143 0 0)
(0.4897704707731691 0 0)
(0.4899222917936837 0 0)
(0.4902811491240225 0 0)
(0.4957338359558232 0 0)
(0.5019637707345729 0 0)
(0.5115618078289116 0 0)
(0.5149355245193876 0 0)
(0.521486881239036 0 0)
(0.5234903729157172 0 0)
(0.5244882591495016 0 0)
(0.5228279459051147 0 0)
(0.5239692389898015 0 0)
(0.5244678019830371 0 0)
(0.5266645086403831 0 0)
(0.5328133241924053 0 0)
(0.5367369107450812 0 0)
(0.5407154672729617 0 0)
(0.5473352862098037 0 0)
(0.5499375511585495 0 0)
(0.5538759712819548 0 0)
(0.5585702939336563 0 0)
(0.5607356254743303 0 0)
(0.5656901529959284 0 0)
(0.5686230930763818 0 0)
(0.5696724311803406 0 0)
(0.5724858714286286 0 0)
(0.5759216556703802 0 0)
(0.5786232497545069 0 0)
(0.5829243338659478 0 0)
(0.5882833693355912 0 0)
(0.5915582201778941 0 0)
(0.5974411924595335 0 0)
(0.6010434539958517 0 0)
(0.6045915163456692 0 0)
(0.6063404325304088 0 0)
(0.6079807394136162 0 0)
(0.6118035841718432 0 0)
(0.6150376347283514 0 0)
(0.6207291151002479 0 0)
(0.624647210071231 0 0)
(0.6286799933627986 0 0)
(0.6336892766724483 0 0)
(0.6360873322658763 0 0)
(0.6377787604053836 0 0)
(0.6383828640051636 0 0)
(0.6421320710299894 0 0)
(0.6462632877180478 0 0)
(0.6520691683213581 0 0)
(0.6588569639624223 0 0)
(0.664385143875396 0 0)
(0.6691792688591691 0 0)
(0.6724930209716978 0 0)
(0.6724866186487847 0 0)
(0.6718779896233961 0 0)
(0.6740120952617839 0 0)
(0.6740875954677331 0 0)
(0.6788631360149754 0 0)
(0.6851197718569234 0 0)
(0.6910642053786682 0 0)
(0.6973087191124024 0 0)
(0.7044470511539818 0 0)
(0.7055641553302413 0 0)
(0.7087951298699486 0 0)
(0.7090007940888191 0 0)
(0.7099461299719113 0 0)
(0.7105861696783196 0 0)
(0.7164197079615848 0 0)
(0.7182744647500605 0 0)
(0.7233468404630441 0 0)
(0.7301858647590884 0 0)
(0.7344944955887399 0 0)
(0.7376537953888587 0 0)
(0.7417440696323598 0 0)
(0.7456494511786793 0 0)
(0.7470316986333105 0 0)
(0.7527119877878934 0 0)
(0.7574210749568819 0 0)
(0.7619696196357847 0 0)
(0.7678305235084534 0 0)
(0.7713073715212009 0 0)
(0.773653226038962 0 0)
(0.7780437268990006 0 0)
(0.7818392967615747 0 0)
(0.7847822761836616 0 0)
(0.791027709458848 0 0)
(0.7931762285390332 0 0)
(0.8021400181768248 0 0)
(0.8128800088001092 0 0)
)
;

boundaryField
{
    inlet
    {
        type            calculated;
        value           uniform (-0.006751570956654506 0 0);
    }
    outlet
    {
        type            calculated;
        value           uniform (0.8128800088001092 0 0);
    }
    frontAndBack
    {
        type            empty;
    }
}


// ************************************************************************* //
