/*--------------------------------*- C++ -*----------------------------------*\
| =========                 |                                                 |
| \\      /  F ield         | OpenFOAM: The Open Source CFD Toolbox           |
|  \\    /   O peration     | Version:  v2012                                 |
|   \\  /    A nd           | Website:  www.openfoam.com                      |
|    \\/     M anipulation  |                                                 |
\*---------------------------------------------------------------------------*/
FoamFile
{
    version     2.0;
    format      ascii;
    class       volVectorField;
    location    "0.004";
    object      U;
}
// * * * * * * * * * * * * * * * * * * * * * * * * * * * * * * * * * * * * * //

dimensions      [0 1 -1 0 0 0 0];


internalField   nonuniform List<vector> 
100
(
(-4.27629e-13 0 0)
(-4.49816e-13 0 0)
(-3.13968e-13 0 0)
(-2.6318e-13 0 0)
(-2.96095e-13 0 0)
(-1.50977e-13 0 0)
(-7.82444e-14 0 0)
(-3.25592e-14 0 0)
(1.4726e-14 0 0)
(2.96691e-14 0 0)
(1.56978e-14 0 0)
(-1.40898e-14 0 0)
(-1.3969e-14 0 0)
(1.57933e-14 0 0)
(8.35427e-14 0 0)
(8.43807e-14 0 0)
(1.2499e-13 0 0)
(5.82972e-14 0 0)
(-1.69237e-14 0 0)
(1.67824e-14 0 0)
(1.29476e-13 0 0)
(6.72907e-14 0 0)
(4.50168e-14 0 0)
(5.57067e-14 0 0)
(-3.62893e-14 0 0)
(-1.11501e-13 0 0)
(-9.4882e-14 0 0)
(2.59732e-14 0 0)
(9.21314e-12 0 0)
(1.17534e-07 0 0)
(0.000131844 0 0)
(0.0181264 0 0)
(0.461654 0 0)
(3.42041 0 0)
(11.3967 0 0)
(23.981 0 0)
(39.3021 0 0)
(56.0549 0 0)
(73.6045 0 0)
(91.6524 0 0)
(110.047 0 0)
(128.709 0 0)
(147.598 0 0)
(166.702 0 0)
(186.022 0 0)
(205.559 0 0)
(225.295 0 0)
(245.056 0 0)
(264.469 0 0)
(282.089 0 0)
(294.373 0 0)
(297.358 0 0)
(292.391 0 0)
(292.852 0 0)
(293.295 0 0)
(293.339 0 0)
(293.327 0 0)
(293.321 0 0)
(293.381 0 0)
(293.54 0 0)
(293.716 0 0)
(293.88 0 0)
(294.336 0 0)
(294.643 0 0)
(292.508 0 0)
(292.031 0 0)
(292.809 0 0)
(293.754 0 0)
(294.692 0 0)
(294.283 0 0)
(289.609 0 0)
(261.792 0 0)
(158.599 0 0)
(24.7874 0 0)
(0.354131 0 0)
(0.000301951 0 0)
(1.00529e-08 0 0)
(2.94657e-13 0 0)
(-4.2274e-14 0 0)
(6.44085e-15 0 0)
(4.59739e-14 0 0)
(4.88344e-15 0 0)
(-2.46978e-14 0 0)
(-2.92746e-15 0 0)
(1.17136e-14 0 0)
(-9.35182e-14 0 0)
(-2.25108e-13 0 0)
(-2.61771e-13 0 0)
(-2.17758e-13 0 0)
(-2.65285e-13 0 0)
(-2.16495e-13 0 0)
(-2.4526e-13 0 0)
(-2.40116e-13 0 0)
(-2.77156e-13 0 0)
(-1.88437e-13 0 0)
(-1.16795e-13 0 0)
(-5.72525e-14 0 0)
(-9.37385e-14 0 0)
(-1.62418e-13 0 0)
(-3.99283e-14 0 0)
)
;

boundaryField
{
    sides
    {
        type            zeroGradient;
    }
    empty
    {
        type            empty;
    }
}


// ************************************************************************* //
