/*--------------------------------*- C++ -*----------------------------------*\
| =========                 |                                                 |
| \\      /  F ield         | OpenFOAM: The Open Source CFD Toolbox           |
|  \\    /   O peration     | Version:  v2012                                 |
|   \\  /    A nd           | Website:  www.openfoam.com                      |
|    \\/     M anipulation  |                                                 |
\*---------------------------------------------------------------------------*/
FoamFile
{
    version     2.0;
    format      ascii;
    class       volScalarField;
    location    "0.0165";
    object      p;
}
// * * * * * * * * * * * * * * * * * * * * * * * * * * * * * * * * * * * * * //

dimensions      [1 -1 -2 0 0 0 0];


internalField   nonuniform List<scalar> 
1000
(
101339.1710990502
101336.7103454386
101343.555879172
101349.0165617032
101355.1282808019
101360.6767630297
101365.4971416836
101369.6524573366
101373.178141527
101375.5526067838
101376.3246634694
101376.3579301282
101375.9827149275
101374.8962720211
101372.8052764361
101369.6378099392
101365.5141643878
101360.6255793262
101355.1326814329
101349.144862262
101342.7497699801
101336.0438221295
101329.1413119872
101322.1663166041
101315.2423386895
101308.4893044508
101302.0200912778
101295.9209926586
101290.2261290069
101284.9477650375
101280.2574665091
101276.7242524607
101274.9562358376
101274.608128605
101274.6697971708
101275.0404789255
101275.9531253681
101277.6359136118
101280.2733178242
101283.9422411678
101288.5846166989
101294.0329972108
101300.0746666539
101306.5138093555
101313.2010539023
101320.0278133412
101326.9037766163
101333.7381439266
101340.4367083505
101346.9187026257
101353.1391063097
101359.0789617394
101364.6721470835
101369.6246090748
101373.2165268061
101374.8670034949
101375.2033684076
101375.218852464
101374.9402970294
101374.2165521688
101372.847609768
101370.6476204764
101367.4852964502
101363.3193106901
101358.2119312236
101352.3162950694
101345.8396484419
101338.9974315907
101331.9776638891
101324.925735527
101317.946454671
101311.1132077425
101304.4726415841
101298.0458589604
101291.8561039874
101286.0285974206
101280.9937412982
101277.5619268554
101276.1106471436
101275.8439164593
101275.8726279584
101276.1725097339
101276.8868910976
101278.1829022713
101280.2271843332
101283.1525363455
101287.0270564073
101291.8343361577
101297.4716236537
101303.7670538997
101310.5113638499
101317.4946357975
101324.5376913341
101331.5105146657
101338.3352159954
101344.9802477346
101351.4467325012
101357.7205884228
101363.6714885143
101368.8916315092
101372.572649618
101374.1886384327
101374.5357997411
101374.5990387642
101374.3935708878
101373.8367359765
101372.7580034599
101370.9994868032
101368.4237865993
101364.9372451302
101360.5088751608
101355.1833584437
101349.0815544932
101342.3850804866
101335.3077587365
101328.0604193506
101320.8180934385
101313.7002011798
101306.7674252979
101300.0357308611
101293.5298082389
101287.407961143
101282.1539014993
101278.6067574987
101277.126527102
101276.8309124371
101276.807563301
101277.0389431942
101277.6160230938
101278.6825834243
101280.3807683656
101282.8396304042
101286.151871745
101290.3569337028
101295.4296328421
101301.2772270071
101307.7475638579
101314.6489511454
101321.7796041615
101328.9601107318
101336.0576464221
101342.9959869727
101349.7494609206
101356.2926444731
101362.4833132551
101367.9142526159
101371.8070058665
101373.5843455389
101374.0027145609
101374.1097010239
101373.9713884655
101373.5432655267
101372.6736091938
101371.2210327451
101369.0558207235
101366.0735163527
101362.2092522319
101357.4521910066
101351.8547849569
101345.5325192795
101338.652570354
101331.411345609
101324.0038520773
101316.5948298986
101309.3016455355
101302.1934203893
101295.3335829683
101288.9067022688
101283.4013565609
101279.6442648629
101278.0401254498
101277.6884143691
101277.616460228
101277.7865685901
101278.2481348764
101279.136343023
101280.5763901361
101282.6882249356
101285.5697120293
101289.2824751799
101293.8408196659
101299.2046795262
101305.2786109244
101311.9189745183
101318.9508970354
101326.1937600559
101333.4872840964
101340.7093338649
101347.7831549843
101354.6455400086
101361.1326514342
101366.8346491651
101371.0094415884
101373.0257748455
101373.5338640026
101373.6721789979
101373.5957741818
101373.2714847499
101372.5676096247
101371.3536491888
101369.5081023316
101366.925904267
101363.5278646526
101359.2734348543
101354.1714072509
101348.2849250079
101341.7293176964
101334.6612059604
101327.2579304606
101319.6928759444
101312.1161787802
101304.6450770159
101297.3906421015
101290.5761999706
101284.7187605673
101280.6556701504
101278.8491510826
101278.427072567
101278.3228688329
101278.4387465225
101278.8041051843
101279.5428038368
101280.7709181001
101282.6006181388
101285.1294267049
101288.4291336286
101292.5360198884
101297.4434706465
101303.0978972818
101309.3996877668
101316.2114467449
101323.374678646
101330.7306895047
101338.1376672242
101345.4826041918
101352.6668690599
101359.5034634969
101365.5607932027
101370.0970787377
101372.4212067764
101373.0481929026
101373.202881222
101373.1835320983
101372.9444328785
101372.3773878821
101371.359727426
101369.7766119266
101367.5245505213
101364.5178952714
101360.6996736634
101356.0513262831
101350.5987628785
101344.414332274
101337.613132727
101330.3410891697
101322.7570207471
101315.0172977976
101307.2662792449
101299.6498602084
101292.4180153044
101286.1128616262
101281.6061662833
101279.4708311568
101278.934926745
101278.8084393148
101278.8733107349
101279.1573766914
101279.7686582583
101280.8158058685
101282.404318404
101284.6300648937
101287.5703351409
101291.2749766177
101295.7597010758
101301.0014041976
101306.9361649142
101313.4620955152
101320.4494159585
101327.7559402089
101335.2406365762
101342.7730975854
101350.2297260654
101357.4112837146
101363.8709918508
101368.84997969
101371.5912572003
101372.4061439951
101372.5684086704
101372.6021444295
101372.430623677
101371.9791499115
101371.1302335555
101369.7762067508
101367.8158123368
101365.1607707452
101361.74556497
101357.5356397971
101352.5327090193
101346.7781373933
101340.3530834905
101333.3721774951
101325.9713999237
101318.2975321178
101310.5022176439
101302.7477985083
101295.2902646912
101288.6764123173
101283.8039163017
101281.3422840533
101280.6722999014
101280.5348170954
101280.5535137772
101280.7692974103
101281.2695189543
101282.1541267019
101283.5211417248
101285.4624675539
101288.0562057751
101291.3589108504
101295.4001406879
101300.1782003541
101305.6569937216
101311.7658659266
101318.4048989983
101325.4554619395
101332.7899061588
101340.2768859965
101347.7828738034
101355.117509437
101361.8567523825
101367.2450581237
101370.4748793873
101371.5691413164
101371.7623589306
101371.8333806141
101371.7210089548
101371.3760029298
101370.6859383856
101369.549764
101367.870307467
101365.5583617
101362.5419270703
101358.7731403214
101354.232394077
101348.9318322988
101342.9177040971
101336.2686938633
101329.0891668333
101321.5030379498
101313.653185082
101305.7070943422
101297.9172090112
101290.8148896118
101285.3330080474
101282.3018544465
101281.3658623092
101281.2106322867
101281.1859800601
101281.3454010843
101281.7531696937
101282.5043467917
101283.691852095
101285.406105207
101287.7264888638
101290.71428267
101294.4086048282
101298.8232994142
101303.9435736311
101309.7241422215
101316.0913958573
101322.9502958538
101330.1911909194
101337.6913444709
101345.3147383383
101352.8797545751
101359.9977236348
101365.9118313727
101369.7407835015
101371.2372412223
101371.5015215412
101371.5902832365
101371.5245834415
101371.2606922344
101370.6928801951
101369.7248490659
101368.2619600507
101366.2134508588
101363.5025029941
101360.0733453638
101355.8938232044
101350.9576119086
101345.2872518489
101338.9352637659
101331.9808220514
101324.5262246689
101316.6999650461
101308.6638104728
101300.6515051447
101293.1425943315
101287.0565250095
101283.3727850899
101282.0601955748
101281.8431473921
101281.7918411361
101281.904706794
101282.2311809183
101282.8652286716
101283.8948073108
101285.4085381566
101287.4872060285
101290.1958564672
101293.5804281219
101297.6657765941
101302.4526687259
101307.9150517389
101314.0000854529
101320.6325081158
101327.7200734115
101335.1530749506
101342.7999931753
101350.4913115719
101357.897910305
101364.3137067011
101368.7931414592
101370.8413054535
101371.2684581968
101371.3592781464
101371.3320517837
101371.1370536211
101370.6761438112
101369.857891166
101368.5907482382
101366.7823345054
101364.3509460037
101361.2340601732
101357.3900199431
101352.7988476374
101347.4651222885
101341.4205536755
101334.7230633313
101327.4546434291
101319.7256531274
101311.6846950158
101303.5443515547
101295.7169017732
101289.0543490592
101284.6525417712
101282.8254818977
101282.473091125
101282.4056143012
101282.4782609423
101282.7336108098
101283.2626231134
101284.1483597626
101285.4777203346
101287.3339006502
101289.7858907465
101292.8846578486
101296.662833831
101301.1328839343
101306.2839650769
101312.0803903976
101318.464015875
101325.3585239053
101332.6685030538
101340.2730928254
101348.0161426045
101355.6275520231
101362.4906519246
101367.6232420902
101370.3265987802
101371.042736049
101371.130352403
101371.1374425268
101371.000055771
101370.6325072812
101369.9475634404
101368.8570110151
101367.2681737327
101365.0949924922
101362.2685642995
101358.7394208229
101354.47720856
101349.4725854185
101343.7403935186
101337.3206786414
101330.2775273353
101322.7032188629
101314.7301632335
101306.549963847
101298.5033397301
101291.3293810661
101286.1838915763
101283.7078502879
101283.1027781786
101283.0254713061
101283.0654163895
101283.2620683812
101283.6996620652
101284.4575326411
101285.6199567625
101287.2715503303
101289.485089803
101292.3163318874
101295.8045258595
101299.9716301648
101304.8191276756
101310.3255403843
101316.4471344394
101323.1213488954
101330.2670957004
101337.7772900064
101345.5072711937
101353.2319140508
101360.4526949101
101366.2169145253
101369.6442415143
101370.8052419228
101370.9326027686
101370.957185856
101370.8620420421
101370.5724001731
101370.0026254086
101369.0703867205
101367.6833650277
101365.7507530203
101363.1967462749
101359.964807767
101356.0164787629
101351.3317048242
101345.9117924221
101339.7818879031
101332.990919296
101325.614183011
101317.7655676295
101309.6156459667
101301.4465004595
101293.8645242121
101287.9918242103
101284.7618938275
101283.760773765
101283.6494369468
101283.6613222304
101283.8097021875
101284.1697861175
101284.8152780885
101285.826848475
101287.2898838661
101289.2812832229
101291.8616895964
101295.0757816683
101298.9528951168
101303.504611183
101308.7216957567
101314.5731303109
101321.0084729959
101327.9594054883
101335.3322285707
101342.9957754139
101350.759580877
101358.2387035678
101364.582492039
101368.7544150596
101370.4942194581
101370.7679696334
101370.7876845533
101370.7230084727
101370.4986700513
101370.0279376512
101369.2345478548
101368.0286057179
101366.316790517
101364.0176719302
101361.0678578611
101357.421088458
101353.0479536499
101347.9384057792
101342.1048575865
101335.583081494
101328.4335090105
101320.7523214131
101312.6891001574
101304.4803585086
101296.606818137
101290.0727444478
101286.029051915
101284.4945236698
101284.2625795425
101284.2619242285
101284.3699861915
101284.6630405762
101285.2094645318
101286.0848735653
101287.3742889348
101289.1584695556
101291.502889527
101294.4570429503
101298.0564252632
101302.3211456716
101307.2524525167
101312.8306015826
101319.0160220955
101325.7511813534
101332.9552692094
101340.5128612845
101348.2579592022
101355.889608295
101362.7117177647
101367.6242815832
101370.0603666978
101370.6243938082
101370.6288346051
101370.5925040495
101370.4146095154
101370.0257244646
101369.3517065718
101368.3080501817
101366.8006540799
101364.7421514189
101362.0615709535
101358.7051312695
101354.6354431809
101349.833021388
101344.2991830472
101338.0579120341
101331.1569142499
101323.6756569126
101315.7430040959
101307.5625851654
101299.514695258
101292.429317356
101287.5513303616
101285.3562146631
101284.8816106727
101284.8654742746
101284.9430032095
101285.1802349545
101285.6430795879
101286.4001730067
101287.5330916483
101289.125252891
101291.2472003372
101293.9535369548
101297.2853614222
101301.2700185299
101305.9178990528
101311.2196761306
101317.1459405715
101323.6488838881
101330.6602222031
101338.0793219359
101345.7573782863
101353.4522367055
101360.6362684423
101366.2618882262
101369.4437656684
101370.4380971458
101370.5166887963
101370.4763878322
101370.3310626733
101370.0089049115
101369.4365917552
101368.5352813839
101367.212096409
101365.3762094801
101362.9507368321
101359.87474735
101356.1024879133
101351.6050560553
101346.3734456911
101340.4209762812
101333.7842568028
101326.5278152153
101318.7613449347
101310.6628622356
101302.536061995
101295.0303539147
101289.3552740236
101286.3994988838
101285.5349353511
101285.4701458265
101285.5301730304
101285.7181973273
101286.1093237816
101286.7630083904
101287.7558456873
101289.1724442436
101291.0876920301
101293.5606444721
101296.6370043358
101300.3501513935
101304.7184989741
101309.7422284374
101315.4017946817
101321.6591075953
101328.4570201436
101335.7083468481
101343.2810583641
101350.9755121195
101358.3933453732
101364.6366835782
101368.6028590659
101370.1987368652
101370.4271420192
101370.3766477036
101370.2622568209
101369.9900701509
101369.497989473
101368.7160311752
101367.5558343722
101365.9242887242
101363.7387114104
101360.930915089
101357.447260142
101353.2503764345
101348.3219371302
101342.6651023186
101336.3057759698
101329.2951693518
101321.7243217737
101313.7473657806
101305.6153415991
101297.8334724324
101291.4544030998
101287.6491871506
101286.2578604728
101286.0624112331
101286.1130269823
101286.2580253741
101286.5893128689
101287.1553827015
101288.0254360829
101289.2823657343
101291.005355495
101293.2586530552
101296.0924102993
101299.544887203
101303.6408425168
101308.3884453397
101313.7773609261
101319.7787611026
101326.3454182061
101333.4049531024
101340.8445431334
101348.4900069261
101356.0255112923
101362.7571744284
101367.5293895553
101369.8163125113
101370.3243027526
101370.3144154923
101370.2085676696
101369.9704888588
101369.5432139232
101368.8600225788
101367.8410023528
101366.3932954963
101364.4294696635
101361.8753795865
101358.6702860143
101354.7683130696
101350.1420227945
101344.7850545113
101338.7134788863
101331.9673584928
101324.6202854403
101316.8024815567
101308.7293393105
101300.7952133216
101293.8387833029
101289.1437835755
101287.103455365
101286.6641042251
101286.6813060558
101286.7993522266
101287.0805558879
101287.5739700194
101288.3392634214
101289.4543013147
101291.0002467601
101293.0465168106
101295.6487949298
101298.8507891129
101302.6830755031
101307.1603590646
101312.2796312873
101318.0197970046
101324.3425343711
101331.1889140815
101338.4632149024
101346.0125556383
101353.5859107639
101360.6602807836
101366.188472635
101369.2344276785
101370.2111640384
101370.2816902775
101370.1803573576
101369.9774148228
101369.5954686385
101368.9866234694
101368.0827116701
101366.7954058848
101365.0351046544
101362.7213577527
101359.7850440818
101356.1711956764
101351.8434812866
101346.7870682497
101341.0096748733
101334.5419585739
101327.4420921071
101319.8168541982
101311.8510713275
101303.8591057757
101296.4904274044
101290.9515745936
101288.142576753
101287.3098477515
101287.2425816334
101287.3501942276
101287.5813663571
101288.0182064972
101288.6989920287
101289.6918970634
101291.0770767581
101292.9284192962
101295.3080340197
101298.2668739877
101301.8426645478
101306.056384342
101310.910627561
101316.3898027945
101322.4615079231
101329.0761172987
101336.1555359329
101343.572576723
101351.1214808151
101358.3973409167
101364.5465710921
101368.4389593728
101370.003218823
101370.2554808627
101370.1902301375
101370.0111596513
101369.6653450646
101369.1124553754
101368.2971529148
101367.1430398654
101365.5625479293
101363.4718306076
101360.7947076231
101357.4650952741
101353.4336036834
101348.6745804071
101343.1887625861
101337.0016073156
101330.1624843454
101322.7586265047
101314.9445722751
101306.9766588559
101299.3550281356
101293.0958090255
101289.3791728503
101288.0350114941
101287.8095592166
101287.8681549856
101288.061767128
101288.4512533164
101289.068558768
101289.9683445483
101291.2206660139
101292.8969825544
101295.0635837203
101297.7808001876
101301.0985201918
101305.049028557
101309.6428247382
101314.8686598297
101320.6958391355
101327.0775437673
101333.9468179315
101341.1968567236
101348.6552546352
101356.0152155453
101362.621257955
101367.3635785765
101369.6082060531
101370.2036695176
101370.2240314191
101370.0752356302
101369.7761020957
101369.2611391244
101368.5023208553
101367.441716706
101366.0054318526
101364.1136594621
101361.6841545682
101358.6375632656
101354.9078897009
101350.453207271
101345.2614746082
101339.3516119599
101332.7710027022
101325.5973758693
101317.9618071
101310.0815370671
101302.3429545627
101295.5481654253
101290.9204135813
101288.9136091431
101288.4261378806
101288.3768382556
101288.5230533903
101288.8511505125
101289.4158602533
101290.2510518475
101291.4097237584
101292.9504947102
101294.9323951872
101297.4179053729
101300.4702693655
101304.1416750538
101308.4611550912
101313.4294011031
101319.0195769108
101325.1820858106
101331.8495340532
101338.9254556923
101346.2609848564
101353.6181124408
101360.4989913015
101365.9361949159
101369.0128727969
101370.0468491194
101370.2089780965
101370.1600750482
101369.9305025877
101369.4755103669
101368.7624194602
101367.7529902608
101366.4005012322
101364.6496285454
101362.4320865858
101359.6641799264
101356.256765489
101352.1357736673
101347.2616061263
101341.6377560341
101335.3093551761
101328.3561955481
101320.9003772895
101313.134108157
101305.3655656824
101298.2173894296
101292.8244012314
101290.0033093441
101289.1375109017
101289.0000954514
101289.0307751026
101289.2545304634
101289.7234722919
101290.4843476997
101291.5810770473
101293.0503566408
101294.9215563586
101297.2290809238
101300.0272009497
101303.3889114574
101307.3850683433
101312.0567973763
101317.3981480269
101323.3556421149
101329.8444349524
101336.7605569997
101343.9664998156
101351.2685685806
101358.302826236
101364.2679621416
101368.1590673616
101369.7694025657
101370.0981415306
101370.1390735697
101370.0234336915
101369.7116450746
101369.1270753813
101368.2064693547
101366.8977226849
101365.1726884966
101363.0203115669
101360.4208362484
101357.3235260574
101353.6384500709
101349.2404403058
101344.0035129157
101337.883073626
101331.0252448956
101323.6441627568
101316.2348572401
101307.7084761744
)
;

boundaryField
{
    inlet
    {
        type            uniformFixedValue;
        uniformValue    sine;
        uniformValueCoeffs
        {
            frequency       constant 3000;
            scale           constant 50;
            level           constant 101325;
        }
        value           uniform 101326.3578702043;
    }
    outlet
    {
        type            pressureOutletNSCBC;
        pInf            101325;
        gamma           1.4;
        etaAc           1;
        fieldInf        1;
        lInf            2.25;
        value           uniform 101303.8904607485;
    }
    frontAndBack
    {
        type            empty;
    }
}


// ************************************************************************* //
