/*--------------------------------*- C++ -*----------------------------------*\
| =========                 |                                                 |
| \\      /  F ield         | OpenFOAM: The Open Source CFD Toolbox           |
|  \\    /   O peration     | Version:  v2012                                 |
|   \\  /    A nd           | Website:  www.openfoam.com                      |
|    \\/     M anipulation  |                                                 |
\*---------------------------------------------------------------------------*/
FoamFile
{
    version     2.0;
    format      ascii;
    class       volScalarField;
    location    "0.0165";
    object      pMean;
}
// * * * * * * * * * * * * * * * * * * * * * * * * * * * * * * * * * * * * * //

dimensions      [1 -1 -2 0 0 0 0];


internalField   nonuniform List<scalar> 
1000
(
101325.3431229597
101325.3176700073
101325.3109490326
101325.3057658369
101325.2942658496
101325.281262538
101325.2639858389
101325.2470941664
101325.2278208815
101325.2079537058
101325.187190839
101325.1660106141
101325.1450261388
101325.1242111679
101325.104048625
101325.0848672299
101325.0671631342
101325.0512888536
101325.0374929386
101325.0261292085
101325.0173048873
101325.0113014998
101325.0080387082
101325.0078035485
101325.0104373011
101325.016010811
101325.0243766763
101325.0354220902
101325.0488888974
101325.0646980062
101325.0825844332
101325.1022700946
101325.1230798545
101325.1443130092
101325.1656917991
101325.1869215555
101325.2079462142
101325.2285084659
101325.2482613314
101325.2667858254
101325.2836912854
101325.298506514
101325.3109927947
101325.3208770418
101325.3280700905
101325.332299087
101325.3337016851
101325.3321413126
101325.3277243049
101325.3205426763
101325.310686102
101325.2982402787
101325.2833563143
101325.2662148604
101325.24718966
101325.2270495135
101325.2064278225
101325.1859896944
101325.1655160909
101325.1452408123
101325.1253440045
101325.1061193583
101325.0879010855
101325.0712079969
101325.0563058509
101325.0437180946
101325.0336689476
101325.0264688833
101325.0220701966
101325.0207496818
101325.0223019635
101325.0268497716
101325.0342262777
101325.0444110269
101325.0572225776
101325.0725846491
101325.0902648286
101325.1097884391
101325.1303500069
101325.151121409
101325.1721329891
101325.1929582237
101325.2135781473
101325.2339019118
101325.2535744823
101325.2723171656
101325.2897563831
101325.3054560048
101325.3190201084
101325.3301667258
101325.3385866103
101325.3441685198
101325.3466948199
101325.3462434136
101325.342890843
101325.3366669575
101325.3277015889
101325.3160427321
101325.3017324751
101325.28507441
101325.2664008431
101325.2466341594
101325.2263428361
101325.2063044534
101325.186195677
101325.1662342351
101325.1466124027
101325.1274983777
101325.1092069567
101325.092123233
101325.0765918791
101325.0630396345
101325.0518455408
101325.0433043598
101325.0377142017
101325.0350148074
101325.0353992998
101325.038908515
101325.0453194178
101325.0547117236
101325.0669014805
101325.081752276
101325.0990714603
101325.1182878801
101325.1385811481
101325.1590596023
101325.1797708352
101325.2003602866
101325.2207019862
101325.2408449883
101325.2604283086
101325.2792817699
101325.2969786727
101325.3132811343
101325.3276329539
101325.339854903
101325.3494622217
101325.3564541303
101325.3602212025
101325.3611126635
101325.3589232596
101325.3537472542
101325.3456801705
101325.334827433
101325.321196442
101325.3051071693
101325.2869095101
101325.2675055196
101325.2476051193
101325.2277055189
101325.2080037532
101325.1883251798
101325.1689144157
101325.1499693762
101325.1316880803
101325.1143904543
101325.0984720528
101325.0842404194
101325.0721304618
101325.0624687593
101325.0556656924
101325.0515845829
101325.0507524861
101325.0530455456
101325.0584283404
101325.066913869
101325.0783871878
101325.0927127937
101325.1095809994
101325.1285124057
101325.1485343302
101325.1689266548
101325.1891591172
101325.2097230763
101325.2299018459
101325.2498806513
101325.2694227616
101325.2883297064
101325.3062380666
101325.3229498497
101325.337947204
101325.3510155479
101325.3616933646
101325.3699093466
101325.3749906471
101325.3772958912
101325.3763439764
101325.3724228819
101325.3653601791
101325.3554230152
101325.3426016942
101325.3271401727
101325.3094928046
101325.2904471346
101325.2709547097
101325.2511322428
101325.2318299925
101325.2124350098
101325.1932052931
101325.1744292217
101325.1562035548
101325.1388466131
101325.1226276646
101325.1079598692
101325.0951246183
101325.0845741518
101325.0766238204
101325.0714580503
101325.0693408019
101325.0703362315
101325.0746270516
101325.0820603743
101325.0926928416
101325.1063958705
101325.1227715767
101325.1414050237
101325.1612161007
101325.1815274951
101325.2015249003
101325.222027989
101325.2421159182
101325.2619684437
101325.2814811609
101325.3004570258
101325.3185810552
101325.3355874829
101325.3511593703
101325.3649331155
101325.3765826261
101325.3857911114
101325.3924021655
101325.3958666171
101325.396294473
101325.3936862264
101325.3878325722
101325.3789428785
101325.3670596154
101325.3523778452
101325.3353428858
101325.3167463681
101325.297590756
101325.2780842526
101325.2590027538
101325.2399468255
101325.2209354981
101325.2023498293
101325.1842589107
101325.1669379678
101325.1505566333
101325.1356139411
101325.1222569898
101325.1110343422
101325.1021092072
101325.09610637
101325.0926596228
101325.0925649771
101325.0956771793
101325.1021023376
101325.1117706063
101325.1247264035
101325.1405980231
101325.1588799035
101325.1785716957
101325.198817964
101325.2189171274
101325.2391091069
101325.2593761652
101325.279243159
101325.298807835
101325.3179199409
101325.3362949972
101325.3536649832
101325.3697571324
101325.3842449795
101325.396787183
101325.4070502677
101325.4149586379
101325.4196926719
101325.4216293077
101325.420412995
101325.415985484
101325.4083327742
101325.3975781883
101325.3839166655
101325.3676592874
101325.3496918912
101325.330894537
101325.3120071659
101325.2928297119
101325.2743745323
101325.255718304
101325.2374041852
101325.2195164999
101325.2023530679
101325.1860145377
101325.1708857942
101325.1572438175
101325.1454906773
101325.1358437047
101325.1289592716
101325.1244122802
101325.1232238222
101325.1250396408
101325.1302562222
101325.1386781406
101325.1504696851
101325.1653496555
101325.1827585438
101325.2017937883
101325.221414158
101325.2411705484
101325.260451733
101325.2803887602
101325.2997858826
101325.318846195
101325.3375194076
101325.3555946433
101325.3727878001
101325.3887820475
101325.4034203559
101325.4162642023
101325.4270888913
101325.4356340988
101325.441483008
101325.4444472411
101325.4443547089
101325.4411879135
101325.4347822385
101325.4251815903
101325.4126252082
101325.3973545177
101325.3801535913
101325.3618900373
101325.343568112
101325.3247079197
101325.3067258342
101325.2885392544
101325.2705403509
101325.2529481957
101325.2360066425
101325.2198160201
101325.2046283863
101325.1907934841
101325.1786187943
101325.1684212428
101325.1605551654
101325.1554255877
101325.152876864
101325.1535253785
101325.1575268924
101325.1648178777
101325.1754938428
101325.1894642431
101325.2062783903
101325.2249528349
101325.2444440471
101325.2641223111
101325.283403641
101325.3030794735
101325.3225934327
101325.3415921054
101325.3603185789
101325.3784555427
101325.3958892543
101325.4121875313
101325.4272345251
101325.4406696642
101325.4522808444
101325.4616009786
101325.4687774425
101325.4726982041
101325.4739405708
101325.4720404776
101325.4669624474
101325.4585273379
101325.4470121127
101325.4326656902
101325.4161105841
101325.3982639118
101325.3801193971
101325.361776574
101325.3434748429
101325.3257648789
101325.3079220438
101325.2904650179
101325.2735214627
101325.2573568741
101325.2420692214
101325.2279331475
101325.215372413
101325.2046346008
101325.1960013259
101325.1901184003
101325.1864341788
101325.1861122243
101325.188936486
101325.1951413944
101325.204742471
101325.2177166373
101325.2338106539
101325.2520664125
101325.2714128359
101325.2909472346
101325.3105098625
101325.3295515378
101325.3493371955
101325.3684084884
101325.387162377
101325.4053678739
101325.423000583
101325.4396184763
101325.4550090292
101325.4689644819
101325.4812217071
101325.4913585304
101325.4994430244
101325.5044940313
101325.5069820304
101325.5062561852
101325.5024746157
101325.4953302701
101325.4849248136
101325.4715729431
101325.455819245
101325.4384880033
101325.4205557291
101325.4026923375
101325.3842299823
101325.3668760487
101325.3492795687
101325.331883618
101325.3149960197
101325.2987952341
101325.2834777908
101325.2691369238
101325.2562158068
101325.2449951751
101325.2357996454
101325.2289565887
101325.2247487979
101325.2232405972
101325.2249362003
101325.230030246
101325.2385525158
101325.2504477198
101325.2656483393
101325.2833874902
101325.3025176454
101325.3219362361
101325.3415416437
101325.3604684003
101325.3801516486
101325.3993809586
101325.4180999501
101325.4364325562
101325.4541570943
101325.4711052526
101325.4868517275
101325.5012195989
101325.514048612
101325.5249939111
101325.5337040978
101325.5402252571
101325.543507063
101325.544037622
101325.541502525
101325.5356629195
101325.5264920703
101325.5141693538
101325.4993132342
101325.4826030629
101325.4649951105
101325.4473528099
101325.429385164
101325.4117151579
101325.3945653375
101325.3772884465
101325.3605130398
101325.3442480276
101325.3289227798
101325.3144643259
101325.3012234655
101325.2895744965
101325.2798854986
101325.2722413866
101325.2674902077
101325.2647727201
101325.265552353
101325.2695171995
101325.2769419358
101325.2877846346
101325.3019578571
101325.319007213
101325.3378230833
101325.3571729797
101325.3766313381
101325.3959343109
101325.4148547853
101325.4344495583
101325.4532774125
101325.4717023479
101325.4895402798
101325.5067134624
101325.5228600933
101325.5376175856
101325.5509541633
101325.5625755994
101325.5720638247
101325.579539692
101325.5837957264
101325.5856108239
101325.5842123529
101325.5796759048
101325.5718153705
101325.5606238558
101325.5466987508
101325.5307380286
101325.5136137182
101325.4960870431
101325.4787484916
101325.4607226085
101325.4440238899
101325.4269702294
101325.4102282311
101325.3939951771
101325.3785569896
101325.3640899688
101325.3505975159
101325.338597665
101325.3283973028
101325.3202207338
101325.3145302551
101325.3113087318
101325.3109860413
101325.3138200771
101325.3201627106
101325.3298999389
101325.343052777
101325.359199907
101325.3776308058
101325.396838203
101325.4161305796
101325.4356590253
101325.4543121231
101325.4739285619
101325.4929366439
101325.511372794
101325.5293907296
101325.5466868916
101325.5632314251
101325.578387557
101325.592205864
101325.6043640453
101325.614699047
101325.6227351096
101325.6285592743
101325.6310950559
101325.6309110422
101325.6276341374
101325.6210566671
101325.6111601533
101325.5981741141
101325.5830850247
101325.5664011151
101325.5491950611
101325.5321711221
101325.5145851487
101325.4975548018
101325.4809633916
101325.4643141136
101325.4481730575
101325.4326381304
101325.4180948397
101325.4045308474
101325.3921254025
101325.3815446867
101325.3728735994
101325.3663326375
101325.3627176361
101325.3611037549
101325.3630514995
101325.3682864046
101325.3769288257
101325.3890480279
101325.4042229585
101325.4220471354
101325.441025642
101325.4603019598
101325.479665519
101325.4987867662
101325.5175502621
101325.5370089966
101325.5555744166
101325.5737274741
101325.5911878481
101325.6079487247
101325.6236737633
101325.6377125576
101325.6506846697
101325.6615758301
101325.6703501277
101325.6772044648
101325.6806178372
101325.6817313533
101325.6795710324
101325.6743080161
101325.6656919595
101325.6538839923
101325.6394995984
101325.623692254
101325.6066461773
101325.5898292521
101325.5729753504
101325.5554974557
101325.5394029678
101325.5229479265
101325.5068182796
101325.4912954191
101325.4765620633
101325.4630367889
101325.4501983331
101325.4395216749
101325.4301595711
101325.4230846019
101325.4185363084
101325.4164606934
101325.4172940197
101325.4214071034
101325.4289905538
101325.4399896428
101325.454271734
101325.471153455
101325.4900997222
101325.5089607505
101325.52835843
101325.5477098071
101325.5661788328
101325.5856695039
101325.6044555594
101325.6226463349
101325.6403387208
101325.6572554684
101325.6734009973
101325.6879268599
101325.7013705392
101325.7129016934
101325.722505532
101325.7298722876
101325.7349448999
101325.7366814761
101325.735745046
101325.7317510236
101325.7244055987
101325.7138920938
101325.7003365085
101325.6853066528
101325.6686789648
101325.6520817416
101325.6355930811
101325.6185900671
101325.6020900516
101325.586132842
101325.5700839721
101325.5546287336
101325.5397886205
101325.5260744195
101325.5133389718
101325.5018641236
101325.4924602741
101325.4847389976
101325.4793051367
101325.4769446455
101325.4763948149
101325.4796723415
101325.4861590981
101325.4960889169
101325.5093681655
101325.5254506456
101325.5437807885
101325.5627356476
101325.5817886183
101325.6012463109
101325.6201401979
101325.6387654035
101325.6580616569
101325.6764128197
101325.6942552982
101325.7114040355
101325.7277283134
101325.7430711662
101325.7563785162
101325.7690940315
101325.7791475162
101325.7872894769
101325.7934560469
101325.7960540479
101325.7964116294
101325.7935010877
101325.7875053411
101325.7782146506
101325.7658613438
101325.7513066324
101325.7355830188
101325.7190158422
101325.7029325261
101325.6864764186
101325.6695963164
101325.6541363757
101325.6382620331
101325.6227759226
101325.6079531081
101325.5939798578
101325.581335396
101325.5692400281
101325.5598170266
101325.551459767
101325.5454039382
101325.542104471
101325.5411546534
101325.5432532431
101325.54861188
101325.5575331939
101325.5697109789
101325.5850443688
101325.6024763935
101325.6215530694
101325.6404153698
101325.6596664088
101325.6788392061
101325.69726376
101325.7164841669
101325.735129572
101325.7530468326
101325.7704624833
101325.7869764401
101325.8027699661
101325.8166200496
101325.829809764
101325.8406947058
101325.849409316
101325.8561867904
101325.8605478685
101325.861424756
101325.8597708396
101325.8550408478
101325.8470224742
101325.8359172403
101325.8220893704
101325.8070142051
101325.7909745167
101325.7747893716
101325.7590195367
101325.7425138859
101325.7265185927
101325.7112161161
101325.6957916443
101325.6810118328
101325.6669093454
101325.6540387282
101325.642058893
101325.6317757169
101325.6232992305
101325.6165864283
101325.6123398552
101325.6112937445
101325.6118052332
101325.6164559339
101325.6242015804
101325.6353988975
101325.6497525161
101325.6666099002
101325.6850923028
101325.7041057928
101325.7230307248
101325.742480689
101325.7611654892
101325.779560874
101325.7987867402
101325.8168567736
101325.8344305044
101325.8512324626
101325.8671849448
101325.8820223031
101325.8948720311
101325.906869141
101325.9165501655
101325.9237307021
101325.9293526919
101325.9311046772
101325.930747105
101325.9270313434
101325.9204061438
101325.9104661975
101325.8978007858
101325.8831150752
101325.8676637238
101325.8518364904
101325.8361476999
101325.8204280657
101325.8039620221
101325.7891548091
101325.773905264
101325.7590459967
101325.7449649754
101325.7317645905
101325.7199707066
101325.7088070251
101325.7003056564
101325.693371179
101325.6878997411
101325.6860219705
101325.6864642221
101325.689674153
101325.6963644252
101325.7065623172
101325.7199045201
101325.736112792
101325.7539929385
101325.7728980037
101325.7919817021
101325.8108313015
101325.8303146233
101325.8483653004
101325.8672590216
101325.8858489551
101325.9035134019
101325.9206371008
101325.9368069308
101325.9521636838
101325.9654959587
101325.9782059444
101325.9885439
101325.9964935113
101326.0025111767
101326.0064515725
101326.0062202518
101326.003974263
101325.9984827577
101325.9898874255
101325.9783121155
101325.964452675
101325.9493075555
101325.9340152106
101325.9183527241
101325.9032479642
101325.8873616552
101325.8715604913
101325.8571387735
101325.8423273777
101325.8282295422
101325.8149230103
101325.8028554016
101325.7917844491
101325.7824785082
101325.7749687355
101325.7697133196
101325.7661131449
101325.7666306419
101325.7682603112
101325.774353733
101325.7832351446
101325.7957127913
101325.8110024089
101325.8285923727
101325.8469486947
101325.8660469868
101325.8850481022
101325.9040125094
101325.9231713038
101325.9407195926
101325.9601257811
101325.9780390815
101325.9952400765
101326.0117990453
101326.0273244455
101326.0416892716
101326.0540232311
101326.0654150005
101326.0747657497
101326.0807304013
101326.0856503396
101326.0873998708
101326.0857792266
101326.0814769098
101326.0741466631
101326.0637257874
101326.0508779227
101326.0362229235
101326.0211353638
101326.0061102745
101325.9905873893
101325.976158259
101325.9599180799
101325.9452018124
101325.9309815838
101325.916728782
101325.9034229333
101325.8910813725
101325.8800472329
101325.8699336097
101325.8624385686
101325.8565794807
101325.85250292
101325.8513164501
101325.8537952604
101325.8574482608
101325.8658325611
101325.8770776829
101325.8915427336
101325.9084528142
101325.9268299967
101325.9453135526
101325.964497423
101325.9833911023
101326.0024574549
101326.0212309875
101326.0384726965
101326.0576553489
101326.0751621864
101326.0919158562
101326.1079238511
101326.1226247983
101326.1357392377
101326.147447299
101326.1572120424
101326.1652719867
101326.1694161191
101326.1730691885
101326.1723919316
101326.1695623317
101326.1632557954
101326.1541133043
101326.1421673365
101326.1284812684
101326.1134549305
101326.098673865
101326.0838876879
101326.0686802898
101326.0547352224
101326.0381763882
101326.0249315934
101326.0109720546
101325.9971798872
101325.9848719082
101325.9734872608
101325.9634037228
101325.9547849829
101325.9487128692
101325.9447982117
101325.9421529261
101325.9433019355
101325.947690968
101325.9537409822
101325.9644297199
101325.9777768321
101325.993965664
101326.0118959258
101326.0307036999
101326.0492173274
101326.068373001
101326.0872596977
101326.1061198851
101326.1249552434
101326.1413529198
101326.1603420102
101326.1774649229
101326.1937945364
101326.2092084922
101326.2226444087
101326.2348274515
101326.2454595146
101326.2538760719
101326.260317281
101326.2628244634
101326.2648160553
101326.2618918742
101326.257905812
101326.249629932
101326.2388479508
101326.2257804834
101326.2115684935
101326.1967225145
101326.1820999207
101326.1675973929
101326.1526962636
101326.139408942
101326.1228331239
101326.1105783564
101326.0972774523
101326.083891716
101326.0733179161
101326.0617917567
101326.0534046128
101326.0465446247
101326.0417366405
101326.0400682965
101326.0390366126
101326.0421716054
101326.0487235015
101326.0600344731
)
;

boundaryField
{
    inlet
    {
        type            calculated;
        value           uniform 101325.3215053712;
    }
    outlet
    {
        type            calculated;
        value           uniform 101326.0646945337;
    }
    frontAndBack
    {
        type            empty;
    }
}


// ************************************************************************* //
