/*--------------------------------*- C++ -*----------------------------------*\
| =========                 |                                                 |
| \\      /  F ield         | OpenFOAM: The Open Source CFD Toolbox           |
|  \\    /   O peration     | Version:  v2012                                 |
|   \\  /    A nd           | Website:  www.openfoam.com                      |
|    \\/     M anipulation  |                                                 |
\*---------------------------------------------------------------------------*/
FoamFile
{
    version     2.0;
    format      ascii;
    class       volScalarField;
    location    "0.0165";
    object      rho;
}
// * * * * * * * * * * * * * * * * * * * * * * * * * * * * * * * * * * * * * //

dimensions      [1 -3 0 0 0 0 0];


internalField   nonuniform List<scalar> 
1000
(
1.176544686222219
1.176521472937706
1.176574473288917
1.176617772938417
1.176669104130628
1.176715553211322
1.176754473529848
1.176787050840572
1.176814441471982
1.1768326908867
1.176838132266014
1.176837693545558
1.176833801818279
1.176824185482128
1.176806535411601
1.17678006540596
1.176745789146704
1.176705310082959
1.176659927747058
1.176610518328993
1.176557791789493
1.176502533251991
1.176445666364188
1.176388183436924
1.176331069363267
1.176275291307711
1.176221776800697
1.176171247557156
1.176123999243211
1.176080148077153
1.176041134197118
1.176011693827518
1.175996882319348
1.175993896735939
1.175994307129961
1.1759972582057
1.176004769729217
1.176018710763011
1.176040586994563
1.176071035348559
1.176109572167831
1.176154801811904
1.176204953176453
1.176258396906726
1.176313890183778
1.176370529421563
1.176427563650523
1.176484239383496
1.176539776731931
1.17659350868659
1.176645065205947
1.176694292421469
1.176740645481999
1.176781689388841
1.176811457962363
1.176825135518063
1.176827922227575
1.176828052008688
1.176825748015356
1.176819755819787
1.176808414298698
1.176790181409072
1.176763968375116
1.176729432110621
1.176687088462984
1.176638206927422
1.176584505828944
1.176527771591252
1.176469563465302
1.176411087423147
1.176353213018675
1.176296549166986
1.176241482857867
1.176188189083998
1.176136860506206
1.176088535447922
1.176046783142866
1.176018324251983
1.176006289573693
1.176004078003818
1.176004316429946
1.176006803539337
1.176012727678606
1.17602347510571
1.176040427875724
1.176064687184889
1.176096817592095
1.176136682795086
1.176183430414324
1.176235634944164
1.176291560821612
1.17634946716205
1.17640786809483
1.176465685510716
1.176522273598216
1.176577370846519
1.176630986649054
1.176683004341335
1.176732343482182
1.176775623201206
1.176806141796781
1.176819539526849
1.17682241771581
1.17682294198768
1.176821238490685
1.176816621915313
1.176807678418705
1.176793098944378
1.176771744247446
1.176742837669086
1.176706122068603
1.176661967616642
1.17661137606183
1.176555852945168
1.17649717092459
1.176437077974955
1.176377025365998
1.176318003351734
1.176260515195125
1.17620469337614
1.176150742738528
1.17609997616379
1.176056405191874
1.176026989009854
1.176014713484964
1.176012261940863
1.176012068292869
1.176013987110535
1.176018772817842
1.176027617768741
1.176041700715383
1.176062091798147
1.176089559645871
1.176124431134041
1.176166497162341
1.176214988361677
1.176268642721681
1.176325870422945
1.176384998067467
1.176444537894676
1.176503388551359
1.176560918069436
1.176616913676773
1.176671164669858
1.176722491966132
1.176767519559347
1.176799793730831
1.176814529239632
1.176817997814677
1.176818884796417
1.176817738066462
1.176814188592349
1.176806978472963
1.176794935469233
1.176776984070079
1.176752258124961
1.176720219646097
1.176680778539555
1.176634369401122
1.176581949432985
1.176524904465079
1.176464862785116
1.176403441190234
1.176342005634147
1.176281529349599
1.176222585579669
1.17616570040324
1.176112404523904
1.176066749853391
1.176035592686121
1.176022289618566
1.176019372868517
1.176018776136017
1.176020186820026
1.176024014558579
1.176031380422438
1.176043322630255
1.176060835845596
1.176084731541582
1.176115520590404
1.176153321402228
1.176197801458354
1.176248169000492
1.176303232640028
1.176361542059615
1.176421599406049
1.176482075588135
1.176541957896089
1.176600609970351
1.176657507821038
1.176711293169987
1.176758568248343
1.17679318084264
1.176809897818233
1.176814110240974
1.17681525695775
1.17681462348283
1.176811934854932
1.176806099177671
1.176796034482484
1.17678073337846
1.176759324702905
1.176731151756526
1.176695878151872
1.176653576531304
1.176604770130744
1.176550414878067
1.176491809108602
1.176430423047076
1.176367694228972
1.176304867529225
1.176242915122643
1.176182758128429
1.176126248632761
1.176077674326206
1.176043979651716
1.176028998295119
1.176025497993514
1.176024633815674
1.176025594760442
1.176028624639384
1.176034750613056
1.176044935262266
1.176060108756943
1.176081079758936
1.176108443478038
1.176142500599635
1.176183196035642
1.176230085130167
1.176282341577118
1.17633882579505
1.176398223309045
1.17645921809518
1.176520634211231
1.176581534640281
1.176641101639976
1.176697784879064
1.176748006211359
1.176785616008886
1.176804884884376
1.176810083057958
1.176811365523026
1.176811205080333
1.176809222736458
1.176804521478293
1.176796084258961
1.176782958928421
1.176764287393855
1.176739359446102
1.176707702563228
1.176669162647647
1.176623954252082
1.17657267694163
1.176516284743728
1.176455987337684
1.176393101403202
1.176328923418215
1.176264650367204
1.176201492077064
1.176141521574624
1.176089234726753
1.176051861422591
1.176034153257448
1.176029709006883
1.176028660031746
1.176029197983149
1.176031553701278
1.176036623006931
1.176045306909437
1.176058480264788
1.176076938039029
1.176101321078132
1.176132042602233
1.176169232701743
1.176212699537847
1.176261912776858
1.176316027260141
1.176373966582457
1.176434551539218
1.176496612586106
1.176559068363549
1.176620894068051
1.176680437833673
1.176733995576285
1.176775275941097
1.17679800339274
1.176804759425942
1.176806104705681
1.176806384379627
1.176804962314818
1.176801219225357
1.176794181021837
1.17678295502113
1.176766701664994
1.176744688949385
1.176716373540933
1.176681468754714
1.176639988563975
1.176592275659128
1.176539002662852
1.176481119749299
1.176419754178363
1.176356122851243
1.176291483085781
1.176227181023178
1.17616533950694
1.176110493134412
1.176070086581194
1.176049672585209
1.176044116451751
1.176042976302499
1.17604313133192
1.176044920781149
1.176049069054657
1.176056404998439
1.176067741461172
1.176083840535688
1.176105349820301
1.176132738182532
1.176166250567631
1.176205872709106
1.176251305036553
1.176301961394927
1.176357012990137
1.176415475903991
1.176476291512639
1.176538370617616
1.176600606016509
1.176661419393371
1.176717295116853
1.176761969335785
1.176788747328343
1.176797819632972
1.176799421542919
1.176800010351869
1.176799078681075
1.17679621828748
1.176790497084685
1.176781077252511
1.176767153111725
1.176747984988549
1.176722975830223
1.176691728647595
1.176654080671666
1.176610132344376
1.176560266853981
1.176505136318839
1.176445605817367
1.176382702583137
1.176317611167281
1.176251720277456
1.176187123253965
1.176128226596034
1.176082766783574
1.176057629920354
1.176049867834948
1.176048580513258
1.176048376058179
1.176049698100985
1.176053079666288
1.176059309079247
1.176069156887598
1.176083372888056
1.176102615318801
1.176127392252502
1.176158027939153
1.176194636995644
1.176237096529299
1.176285030768446
1.176337829069104
1.176394703115916
1.17645474347268
1.176516932267925
1.176580141586198
1.176642865529305
1.176701881653675
1.176750915502671
1.176782660905852
1.176795067766885
1.176797258848282
1.176797994740224
1.176797450020847
1.176795262135734
1.176790554506233
1.176782528725384
1.176770400128103
1.176753416161173
1.176730939838798
1.176702508631912
1.17666785576597
1.176626928580498
1.176579913703316
1.176527246319441
1.176469582616261
1.176407770545087
1.176342875324838
1.176276238171756
1.176209797284055
1.176147529375526
1.176097059484821
1.176066510959132
1.17605562583128
1.176053825865149
1.176053400376719
1.176054336344443
1.176057043741551
1.176062301810083
1.17607083995024
1.176083393053339
1.176100630997208
1.17612309310137
1.176151160196056
1.176185038234483
1.176224733372795
1.176270029336446
1.176320487706986
1.17637548414936
1.176434253521238
1.176495885953462
1.176559290779441
1.176623062377826
1.176684471963085
1.176737665591013
1.176774804210043
1.176791785212069
1.176795326645451
1.176796079606386
1.176795853866512
1.176794237161085
1.176790415837248
1.176783631845579
1.17677312615855
1.176758132818604
1.176737974351835
1.176712132273606
1.176680261048352
1.176642194839073
1.176597971370238
1.176547853284058
1.176492320543344
1.176432052706746
1.176367964584807
1.176301288172731
1.176233786113353
1.176168877209985
1.176113627077276
1.176077123935247
1.17606197242857
1.176059050093078
1.176058490508788
1.176059092947543
1.176061210518103
1.176065597535624
1.176072942809051
1.176083966957983
1.176099359864579
1.176119693573484
1.176145390632986
1.176176721501697
1.176213789364766
1.176256504089022
1.17630456950477
1.176357503216771
1.176414672147352
1.17647528492918
1.176538339235019
1.176602540212574
1.176665648346237
1.176722550913662
1.176765104971905
1.176787518131452
1.176793455494345
1.176794181899312
1.176794240673196
1.176793101614181
1.176790054331284
1.176784375580291
1.17677533398357
1.176762161141666
1.176744143487271
1.176720709654179
1.176691449364272
1.176656110775156
1.176614616208282
1.176567088464517
1.17651385929352
1.176455459775646
1.176392654778507
1.176326541983396
1.176258710006486
1.176191984149044
1.176132493533148
1.17608982344149
1.176069290115785
1.176064272344705
1.176063631245722
1.176063962497864
1.176065593294676
1.176069222186135
1.176075507079828
1.176085146849232
1.176098843161619
1.176117199474052
1.176140678068317
1.17616960429671
1.176204160085974
1.176244357532202
1.17629001830195
1.176340779495126
1.176396122097338
1.176455373489634
1.176517645536279
1.176581738609382
1.176645786031737
1.1767056545335
1.17675344563223
1.176781861216361
1.176791486879043
1.176792542801628
1.176792746609783
1.176791957781923
1.176789556406882
1.176784832501109
1.176777103460571
1.176765603855805
1.176749580765465
1.176728405620556
1.176701609555553
1.176668873547422
1.176630031119647
1.176585092861554
1.176534266994331
1.176477958908291
1.176416792637476
1.176351712251909
1.176284131926665
1.176216390644689
1.176153516990679
1.176104816641929
1.176078031572807
1.176069729463497
1.176068806163926
1.176068904722564
1.176070135206232
1.17607312131606
1.176078474264455
1.176086863023464
1.176098995658964
1.176115509825919
1.176136908341206
1.176163561597581
1.176195712715563
1.176233457548784
1.176276719308487
1.176325240540481
1.176378602721601
1.176436239106956
1.17649737252814
1.176560915206077
1.176625287789071
1.176687298643493
1.176739895223276
1.176774484293406
1.17678890875222
1.176791178367066
1.176791341817234
1.176790805593697
1.17678894563705
1.176785042872504
1.176778465006278
1.176768466714146
1.176754274247305
1.17673521240758
1.17671075551169
1.176680519876406
1.176644261476132
1.17660189677842
1.176553528438465
1.176499452770898
1.176440170546958
1.176376478987428
1.176309618164619
1.176241549121062
1.176176258190967
1.176122073650117
1.176088540396859
1.176075814869089
1.176073891399001
1.17607388596306
1.176074782097496
1.176077212339476
1.176081743727765
1.17608900331911
1.176099696155883
1.17611449191218
1.176133933479998
1.176158431199685
1.17618827928856
1.176223644335052
1.176264536489781
1.176310791798459
1.176362081885624
1.17641792943516
1.17647766413682
1.17654032871406
1.176604546635015
1.176667822542296
1.176724385226099
1.176765115057825
1.176785312320982
1.176789988577514
1.176790025395529
1.176789724182342
1.17678824928428
1.176785025100161
1.176779436925719
1.176770784124394
1.176758286485931
1.176741219606578
1.17671899498142
1.176691166584295
1.176657424252918
1.176617606223473
1.176571723169102
1.176519973669151
1.176462752978423
1.176400719714232
1.176334942129072
1.176267108530028
1.176200372372852
1.176141616505001
1.176101164889321
1.176082961308924
1.176079025514842
1.176078891699593
1.176079534630791
1.176081501943157
1.176085340216754
1.176091618630931
1.176101013666036
1.176114217050449
1.176131813727751
1.176154256418523
1.176181885821158
1.17621492854149
1.176253470558332
1.176297434313551
1.176346575700079
1.176400498034485
1.176458634862507
1.176520151526447
1.176583814018601
1.176647614449902
1.176707178230356
1.176753820193888
1.176780200796796
1.176788444645869
1.176789096237366
1.176788762108606
1.176787557238969
1.176784886278215
1.176780141319521
1.176772668689309
1.176761698331822
1.176746477164385
1.17672636767698
1.176700864583032
1.176669588393186
1.176632299282931
1.176588922349039
1.176539567759759
1.176484538763326
1.176424370097579
1.176359971030583
1.17629281743847
1.176225427501507
1.17616318650386
1.176116125129288
1.176091613676425
1.176084444044458
1.176083906760919
1.176084404555651
1.176085963801077
1.176089207326601
1.176094628186252
1.176102861550699
1.17611460903324
1.176130491613931
1.176150998948911
1.176176509931489
1.176207301229009
1.176243525362751
1.176285183633589
1.176332113738993
1.176383999584325
1.176440367056331
1.176500492990178
1.176563282443972
1.176627079961007
1.176688582621237
1.176740346353141
1.176773229598883
1.176786460794759
1.176788354467021
1.176787935829382
1.176786987433285
1.176784730775019
1.176780651009627
1.17677416790933
1.176764548870545
1.17675102189293
1.176732901401118
1.176709621964427
1.176680738724975
1.176645941670737
1.176605078635571
1.176558175567015
1.17650544696111
1.176447317137
1.176384540670037
1.176318395355577
1.17625096268195
1.1761864321461
1.176133533194034
1.17610197770123
1.176090439772339
1.176088818958618
1.176089238706431
1.176090441146987
1.176093188437311
1.176097882719717
1.176105097856909
1.176115521238696
1.176129809478328
1.176148495301383
1.176171994509866
1.176200624255773
1.176234589695366
1.176273958381437
1.176318644397565
1.176368408456651
1.176422858696185
1.176481394712843
1.176543080795976
1.176606472556282
1.176668951269478
1.176724764039063
1.176764330253459
1.176783290845263
1.176787502514506
1.176787420543805
1.176786542980034
1.17678456910723
1.176781026636757
1.176775362399086
1.176766913840337
1.176754911062777
1.176738629125447
1.176717453216518
1.17669087963322
1.176658527860989
1.17662017021025
1.176575753704931
1.176525411320126
1.176469474938389
1.176408554458868
1.176343729383749
1.176276785550728
1.1762109929905
1.176153306645978
1.176114372653478
1.176097452770964
1.176093809340617
1.176093951995196
1.17609493092905
1.176097262885456
1.176101354647467
1.176107701029394
1.176116947733375
1.176129767792945
1.176146736812007
1.176168316476893
1.176194869132259
1.176226648190378
1.176263775417048
1.17630622566024
1.176353823765581
1.176406251721528
1.176463020644399
1.176523336606732
1.176585931796732
1.176648724769219
1.176707379312426
1.176753213503362
1.176778467201297
1.176786565176934
1.176787149902195
1.17678630977237
1.176784627211384
1.176781460555779
1.176776412711622
1.176768918503318
1.176758245600848
1.176743651090153
1.176724467900053
1.176700122851561
1.17667016006621
1.176634278137845
1.176592353864245
1.176544450981815
1.176490823398385
1.176431953158961
1.176368725359712
1.176302672339245
1.176236400725002
1.176175296280389
1.176129364782628
1.176106070624688
1.176099165023533
1.176098607205858
1.176099499614284
1.176101416669732
1.176105039273038
1.176110684845113
1.176118918725577
1.176130405595657
1.17614575814615
1.176165491363093
1.176190027685633
1.176219679825812
1.176254621587834
1.176294874291967
1.176340308432454
1.176390655091024
1.176445502529868
1.176504202965021
1.176565701604251
1.176628292274846
1.17668861779121
1.176739601269356
1.176771872762036
1.176784841821265
1.176786933288203
1.17678639230956
1.176784907670838
1.176782040580164
1.176777456657326
1.176770697100507
1.176761128490861
1.176748024779703
1.1767306907505
1.176708494713535
1.17668088864867
1.176647462898821
1.176608004570291
1.176562519530448
1.176511218578576
1.176454510771745
1.176393119126627
1.176328324803928
1.176262253210185
1.176199051690466
1.176147146831825
1.176116326049234
1.176105179305916
1.176103309692722
1.176103795616835
1.176105401198299
1.176108631107529
1.176113750253145
1.176121211916294
1.176131597027587
1.176145498144129
1.176163464928297
1.176185997598277
1.176213509742639
1.176246268936248
1.17628436206534
1.176327695643336
1.176376014917101
1.176428931425477
1.176485889745336
1.176546004071403
1.176607844743792
1.176668867967007
1.176723639210771
1.176762957581194
1.176781567514595
1.176786504410313
1.176786673230482
1.176785439593311
1.176782959528515
1.176778690051038
1.176772398797794
1.176763605462718
1.176751697369167
1.176736012804499
1.176715869813043
1.176690610371099
1.176659687161267
1.176622752377256
1.176579705950542
1.176530704489073
1.176476140582539
1.176416658439621
1.176353344648552
1.176288000375619
1.176223829590482
1.176167483909972
1.17612910776197
1.17611246596371
1.176108423504145
1.176108014679028
1.176109227206282
1.176111948030366
1.176116631011038
1.176123557008531
1.176133165507874
1.176145942587823
1.176162377723178
1.176182988970784
1.176208300690033
1.176238745518479
1.176274564041128
1.17631576179531
1.176362116027915
1.176413215244305
1.176468500386071
1.176527171365522
1.176587993679666
1.176648993817867
1.176706044107042
1.176751123933965
1.176776632363785
1.176785204911211
1.176786549098435
1.176786143655195
1.176784240313552
1.176780468049544
1.176774555921359
1.176766186878828
1.176754973538737
1.176740457182218
1.176722071603658
1.176699122804393
1.17667087157727
1.1766367036391
1.176596290459413
1.17654966074443
1.176497188415021
1.176439534778071
1.176377711981585
1.176313313581565
1.176248894925451
1.176189619268434
1.176144897596557
1.176121503253256
1.176114323419454
1.176113183844947
1.176113438208633
1.176115293646212
1.176119182333617
1.176125491944701
1.176134586708621
1.176146770948989
1.176162288224455
1.176181423826268
1.176204627751671
1.176232505203658
1.176265643532258
1.176304383429173
1.17634867515229
1.176398074834737
1.176451878430556
1.17650922318787
1.176568968373013
1.176629507884773
1.176687824795434
1.176737276509977
1.176769532785077
1.176782880956594
1.176785606765759
1.17678594938363
1.176785001264975
1.176782437368151
1.176777618067814
1.176770018531435
1.176759214050418
1.176744983602498
1.176727234937844
1.176705765178458
1.176680077809779
1.176649375367069
1.176612683544861
1.176569168049343
1.176518730767461
1.176462669676958
1.176401972134942
1.176338648371534
1.176262130362716
)
;

boundaryField
{
    inlet
    {
        type            calculated;
        value           uniform 1.176427481426743;
    }
    outlet
    {
        type            calculated;
        value           uniform 1.176227880266148;
    }
    frontAndBack
    {
        type            empty;
    }
}


// ************************************************************************* //
