/*--------------------------------*- C++ -*----------------------------------*\
| =========                 |                                                 |
| \\      /  F ield         | OpenFOAM: The Open Source CFD Toolbox           |
|  \\    /   O peration     | Version:  v2012                                 |
|   \\  /    A nd           | Website:  www.openfoam.com                      |
|    \\/     M anipulation  |                                                 |
\*---------------------------------------------------------------------------*/
FoamFile
{
    version     2.0;
    format      ascii;
    class       volScalarField;
    location    "0.0165";
    object      T;
}
// * * * * * * * * * * * * * * * * * * * * * * * * * * * * * * * * * * * * * //

dimensions      [0 0 0 1 0 0 0];


internalField   nonuniform List<scalar> 
1000
(
300.0080473928957
300.0066816379117
300.0134326865149
300.018557155268
300.023560535133
300.028141092131
300.0324857489127
300.0364788784407
300.0399306261765
300.0423055682639
300.0432033081336
300.0434136223246
300.0432953226718
300.0425315254674
300.0408427669902
300.0382165583562
300.0347503744584
300.0306013084517
300.0259133466587
300.0207867793204
300.0152999366104
300.0095379644443
300.0036036352645
299.9976112157917
299.9916752058032
299.9859040779597
299.9803955785607
299.97522125375
299.9704068237695
299.9659590533843
299.9620188262911
299.9590635073649
299.9576049109895
299.9573354041645
299.9574133774285
299.9577585472367
299.9585456909164
299.9599738663725
299.9622053431952
299.9653053377583
299.9692251056029
299.973824557333
299.9789253241901
299.984362976305
299.9900120815811
299.9957814992093
300.0015953136149
300.0073768335191
300.0130460428113
300.0185339576601
300.0238017135266
300.0288324855567
300.0335695372985
300.0377634270275
300.0408049133652
300.0422026780297
300.0424877297978
300.0425004694888
300.0422634453276
300.0416491180931
300.0404890201102
300.0386262046
300.0359496114195
300.0324242822383
300.0281028564851
300.0231147784116
300.0176352440453
300.011846391201
300.0059071681059
299.9999404589897
299.9940348300721
299.9882523107933
299.9826323714602
299.977192919658
299.971953703221
299.9670207970634
299.9627586250699
299.9598533204017
299.9586245776387
299.9583986719626
299.958422895217
299.9586767067486
299.9592815076209
299.9603787013958
299.9621092944565
299.9645856668
299.9678654100868
299.9719345635802
299.9767060758672
299.982034405538
299.9877423794024
299.9936523004016
299.9996125180297
300.0055130122548
300.0112878895018
300.0169104769694
300.0223817454409
300.0276897995156
300.0327244007642
300.0371405918389
300.0402546001999
300.0416216465865
300.0419153320297
300.0419688348204
300.0417950264865
300.0413239782743
300.0404114266917
300.0389237987882
300.0367448370467
300.0337952698159
300.0300488247236
300.0255432306464
300.0203806605418
300.0147147019363
300.0087262145377
300.002593557925
299.9964648313729
299.9904411005456
299.9845737393998
299.9788762833816
299.9733696549002
299.9681878769657
299.9637404482137
299.9607377845344
299.9594847460237
299.9592345046808
299.9592147425496
299.9594106149041
299.9598991275009
299.9608019880522
299.9622395130198
299.9643209242674
299.9671246575671
299.9706840472537
299.9749777109195
299.979927075568
299.9854032885247
299.9912440497568
299.9972785451073
300.0033549245817
300.0093607896104
300.0152316551668
300.0209458207293
300.0264817985992
300.0317192892131
300.0363138359058
300.039606973988
300.0411105138945
300.0414644339202
300.0415549419573
300.0414379419709
300.041075778627
300.0403400978037
300.0391112862088
300.0372795932544
300.0347566219589
300.0314874502841
300.0274628487055
300.0227271201578
300.017377894451
300.011556546987
300.0054292086749
299.9991608554092
299.9928908817231
299.9867186175101
299.9807025800352
299.9748964791578
299.9694565728747
299.9647964833026
299.961616125733
299.9602582066303
299.9599604817394
299.9598995758408
299.9600435811312
299.960434309252
299.961186190645
299.9624051990051
299.9641928551663
299.9666319730024
299.9697746742336
299.9736330122092
299.9781730070379
299.9833138028936
299.9889337593959
299.9948848194484
300.0010140894475
300.007185915726
300.0132969475404
300.0192822520875
300.0250883707274
300.0305767193193
300.0354006227104
300.0389323820205
300.0406381079571
300.0410679288993
300.0411849401798
300.0411203116079
300.0408459869797
300.0402505491731
300.039223597338
300.0376623346269
300.0354778569088
300.0326031349003
300.0290038139452
300.0246872681299
300.0197068457654
300.0141600491917
300.0081793291091
300.0019146900553
299.99551281675
299.9891007487569
299.982777709283
299.9766377230006
299.9708698492088
299.9659117769193
299.9624724220303
299.9609431966389
299.9605859073856
299.960497702518
299.9605958009681
299.9609050882693
299.9615304074257
299.962570012705
299.9641188442418
299.9662594324017
299.9690525123044
299.9725287479474
299.9766824816245
299.981468288064
299.9868017879219
299.9925666327014
299.9986286341778
300.0048534599021
300.0111210888408
300.0173358969892
300.0234144433466
300.029198541676
300.0343231085142
300.0381607104019
300.040126827223
300.0406572312953
300.0407880940626
300.040771731815
300.0405694740967
300.040089787516
300.0392288965711
300.0378896431038
300.0359844596454
300.0334408612919
300.0302106077946
300.0262779418806
300.0216647167146
300.0164320701411
300.0106773132237
300.0045238531184
299.9981060284351
299.9915561313338
299.9849963165029
299.9785500655453
299.9724289816343
299.9670919980741
299.9632771677158
299.9614696071442
299.9610159652859
299.9609088975448
299.9609638181471
299.9612042897455
299.9617217482811
299.9626081639902
299.963952832679
299.9658368894271
299.9683257314165
299.9714615139778
299.9752574853738
299.979694028529
299.9847169739488
299.9902400206457
299.9961532718713
300.0023363491933
300.0086698729185
300.0150434771251
300.0213525814996
300.0274286317481
300.0328936868066
300.0371058478505
300.0394248709845
300.0401142317843
300.0402515047409
300.0402800489871
300.0401349573885
300.0397530372288
300.0390348943421
300.0378894400708
300.0362310006404
300.0339848707581
300.0310955893644
300.0275338752917
300.0233011190777
300.0184322491393
300.0129958603584
300.0070888742417
300.0008262917644
299.9943322739474
299.987735121669
299.9811722183402
299.9748602415825
299.9692620666235
299.9651376607833
299.9630539176107
299.9624867819912
299.9623704068259
299.9623862388353
299.9625689062793
299.962992346961
299.9637411645255
299.9648983264118
299.9665416142149
299.9687371174595
299.9715326758163
299.9749532658923
299.9789974001667
299.9836344662434
299.9888045998164
299.9944231743029
300.0003897371228
300.0065962209526
300.0129314506366
300.0192824278922
300.0254880944328
300.031189727265
300.0357482226246
300.0384805606508
300.0394062642943
300.0395697221634
300.0396298075856
300.0395347515968
300.0392428965635
300.0386591328317
300.0376979707673
300.0362771956379
300.0343213226115
300.0317694134008
300.0285809365025
300.0247392525676
300.0202545742246
300.0151659625709
300.0095399213576
300.0034646898677
299.9970450629487
299.9904019024211
299.9836769224693
299.9770837755331
299.9710722461657
299.9664320737407
299.9638662570558
299.9630739485166
299.9629425506454
299.9629216868471
299.9630566412127
299.9634018193145
299.9640376862597
299.965042893049
299.9664939677955
299.9684580883804
299.9709870993233
299.9741140756209
299.9778506885039
299.9821843615458
299.9870767045422
299.9924653548356
299.9982698192998
300.0043972497688
300.0107437414413
300.0171941722268
300.0235948635054
300.0296169974649
300.0346203747225
300.0378595820204
300.0391255291495
300.0393491024765
300.039424194316
300.0393686192167
300.0391453827233
300.0386650389148
300.0378461200281
300.0366085570081
300.0348755530482
300.0325820981743
300.0296809769452
300.0261449411774
300.0219685840194
300.0171709107584
300.0117962878076
300.0059116346426
299.9996034442403
299.9929803909615
299.9861793307491
299.9793980688391
299.9730425060202
299.9678909875509
299.9647727967395
299.9636617055828
299.9634779787182
299.9634345512476
299.9635300948823
299.9638064560489
299.9643431720979
299.9652146940645
299.9664960299446
299.9682555475539
299.9705482833927
299.9734130907944
299.97687096698
299.9809225102134
299.9855456114707
299.990695486466
299.9963083764143
300.0023061554211
300.0085959343439
300.0150663841672
300.0215740501605
300.0278404770349
300.0332683565487
300.0370578900528
300.0387905652403
300.0391519208709
300.0392287530258
300.0392057236293
300.0390407669897
300.0386508578184
300.0379586462708
300.0368866803187
300.0353567971939
300.0332998581333
300.0306629412928
300.0274107653289
300.0235263781247
300.0190135929709
300.013899170187
300.0082320449912
300.002081522323
299.995540920332
299.9887359388343
299.9818464539484
299.9752214065019
299.9695820178493
299.9658560432257
299.9643094675356
299.964011174339
299.9639540578632
299.9640155551666
299.964231709002
299.9646795123392
299.9654292726465
299.9665545420862
299.9681257318927
299.9702012210008
299.9728241236635
299.9760220242339
299.9798054275448
299.9841651017087
299.9890707821433
299.9944731963474
300.0003076945908
300.0064934771287
300.0129282235853
300.0194797747201
300.0259195914071
300.0317259815941
300.0360681196868
300.0383550770932
300.0389609012209
300.0390350223845
300.0390410226171
300.0389248021233
300.0386138725041
300.0380344353842
300.037111860725
300.0357677380322
300.0339292477683
300.0315380749366
300.0285523352269
300.0249463038932
300.0207120211181
300.0158619789594
300.0104299882415
300.0044702002346
299.9980606269834
299.9913132535786
299.9843901846978
299.9775797707206
299.971507621771
299.9671522045767
299.9650562929869
299.9645441091012
299.9644786709853
299.9645124856563
299.9646789511083
299.9650493684383
299.9656908907208
299.9666748510231
299.9680728647367
299.9699465188929
299.9723429857347
299.9752954554112
299.9788224727038
299.9829252424804
299.9875855287971
299.9927662556404
299.9984144136129
300.0044613192567
300.0108163008071
300.0173569095371
300.023892643432
300.0300017390586
300.0348782910027
300.0377777259363
300.038759887897
300.0388676306405
300.0388884283529
300.0388079426838
300.0385629189791
300.0380809110442
300.037292266
300.036118877539
300.034483912293
300.0323232207826
300.0295889434141
300.0262485035348
300.0222848833158
300.0176991267415
300.0125124402933
300.0067661484918
300.0005238888211
299.9938819644522
299.9869846683763
299.9800707030051
299.973653327205
299.9686824373215
299.9659484028717
299.9651009739856
299.9650067296081
299.9650167913503
299.9651423942694
299.9654471999913
299.9659935949756
299.9668498603702
299.9680882655794
299.9697738897304
299.9719580445425
299.974678519974
299.9779601095843
299.9818125698097
299.9862280309841
299.991180180403
299.9966262648931
300.0025084048012
300.0087472495787
300.0152317590068
300.0218007435847
300.0281285134903
300.0334954569738
300.0370248331944
300.0384966465617
300.038728228096
300.0387449067939
300.0386901949431
300.0385004152261
300.0381021938135
300.0374310113831
300.0364108139103
300.034962644275
300.0330175971499
300.0305220180711
300.0274367356278
300.0237368219323
300.0194137191288
300.0144778629345
300.0089594475952
300.0029095307369
299.9964094257526
299.9895856505164
299.982638323376
299.9759743058132
299.9704436988507
299.9670208808362
299.9657219402941
299.9655256041183
299.9655250498
299.9656165231395
299.9658645885595
299.9663271234879
299.9670681307501
299.9681595718189
299.9696697952729
299.9716542050474
299.9741546707822
299.9772012040563
299.980810783726
299.9849844159981
299.9897053327142
299.9949399819129
300.0006396103422
300.006735770677
300.0131307362512
300.019684007973
300.0261409358721
300.0319126345003
300.0360686248869
300.0381294785633
300.0386066229183
300.0386103796156
300.0385796461713
300.0384291557701
300.0381001744683
300.037529977655
300.0366470716164
300.0353718410573
300.0336303615071
300.0313625705335
300.0285229381017
300.0250797908559
300.021016591075
300.0163343905617
300.0110534112147
300.0052139426967
299.9988831516495
299.9921700158142
299.9852468093765
299.9784353710838
299.9724382403004
299.9683092842332
299.9664511876331
299.966049446334
299.9660357870438
299.9661014138057
299.9663022256891
299.9666940119941
299.9673348677152
299.9682938393161
299.9696415273895
299.9714376294842
299.9737283428868
299.9765484258617
299.9799209857979
299.9838547709404
299.9883418330476
299.9933572218672
299.9988604136244
300.004793559013
300.0110714417924
300.0175681017121
300.0240786237016
300.0301566181292
300.0349159077316
300.037607697862
300.0384488648454
300.0385153498602
300.0384812569464
300.0383583184267
300.0380857860711
300.0376016288226
300.0368391451551
300.0357197567475
300.0341666142374
300.0321146568513
300.0295123103238
300.0263208302336
300.0225157165553
300.0180892912352
300.0130527559339
300.0074370118507
300.001296582751
299.994724217869
299.9878705039554
299.9809924291349
299.9746396562546
299.9698360806833
299.967334134918
299.9666023062912
299.9665474630469
299.9665982740629
299.9667574315839
299.967088508996
299.9676418310535
299.9684822278402
299.9696813096698
299.9713024535873
299.9733956285273
299.9759994933303
299.9791422674821
299.9828394935515
299.9870912743484
299.991881010468
299.9971764037399
300.002929028431
300.0090650443909
300.0154726785889
300.0219829730005
300.0282588801857
300.0335408362523
300.0368961529325
300.0382462108983
300.0384394319618
300.038396715197
300.0382999450578
300.0380696861198
300.0376534033219
300.036991889433
300.0360103882589
300.0346301212568
300.0327811248299
300.0304056899325
300.0274584047223
300.0239076102282
300.0197377472248
300.0149514253868
300.0095704902409
300.0036381972675
299.99723150672
299.9904807844221
299.9835984390039
299.9770120649291
299.9716127064688
299.968391781866
299.9672140713249
299.9670486287197
299.9670914727541
299.9672142090829
299.9674946334949
299.9679737915753
299.9687102556673
299.9697741847613
299.9712325939636
299.9731398496793
299.9755383798058
299.9784605382569
299.9819272423713
299.9859453594219
299.9905060882751
299.9955849711408
300.001141976967
300.0071157928059
300.0134108918426
300.0198798487192
300.0262554234116
300.0319505986988
300.0359878548365
300.0379225232901
300.0383522630127
300.0383438980297
300.0382543540867
300.0380529483072
300.0376914888178
300.0371135295405
300.0362514623463
300.0350267242155
300.0333653362572
300.0312045526516
300.0284929595799
300.0251917068607
300.0212775317169
300.0167449928313
300.0116076187101
300.0058992325262
299.9996820289892
299.9930661328804
299.9862337706045
299.9795186767856
299.9736307452102
299.9696567195777
299.9679296656117
299.9675577694347
299.9675723292246
299.9676722500275
299.9679102784007
299.9683279343313
299.9689757218117
299.9699195451622
299.9712280963827
299.9729601196907
299.9751627279595
299.9778728898374
299.981116450284
299.9849058121465
299.9892383781877
299.9940962377023
299.9994468977044
300.0052404262508
300.011395763628
300.0177834991364
300.0241912108132
300.0301764245178
300.034853291076
300.0374300960266
300.0382563794767
300.0383160409774
300.0382303160149
300.03805863351
300.0377355203714
300.0372204562506
300.0364557695417
300.0353667313121
300.0338775300093
300.0319200891478
300.0294359079252
300.0263784487387
300.0227169295833
300.0184387458237
300.0135503626809
300.0080776474237
300.0020697470821
299.9956169440611
299.9888755868665
299.9821116892782
299.9758749595093
299.971186742294
299.9688090655738
299.9681041927479
299.9680472536036
299.9681383425996
299.9683340199907
299.9687037869183
299.9692800408844
299.9701204837251
299.9712929555984
299.972859987287
299.9748741333697
299.9773784980129
299.9804049808019
299.9839712981483
299.9880795981336
299.9927166309219
299.9978549153795
300.0034523934873
300.0094429191041
300.0157188165637
300.0221059519126
300.0282617397605
300.0334640824339
300.0367569795444
300.038080291144
300.0382936944484
300.0382384937199
300.0380870053655
300.0377944576053
300.037326730012
300.0366370053023
300.0356606477944
300.0343235680178
300.0325548192885
300.0302899326812
300.0274729711551
300.0240621094833
300.0200355933095
300.0153939848427
300.0101587538594
300.0043715997224
299.9981062630465
299.9914934533455
299.9847500609724
299.978299375558
299.9730015210413
299.9698556125135
299.9687178398619
299.9685270030453
299.968576600761
299.9687404835417
299.9690701651777
299.9695926839943
299.9703543041775
299.9714143179559
299.9728332021047
299.9746670520582
299.9769669126226
299.9797749816949
299.9831185485725
299.9870064550683
299.9914291289061
299.9963605356861
300.0017609938007
300.0075737831145
300.013708471449
300.02001913741
300.0262461871458
300.0318350880548
300.0358470596713
300.0377459503508
300.0382496902971
300.0382669149237
300.0381410381838
300.0378879810855
300.0374523389121
300.0368103996625
300.0359131511178
300.0346980727985
300.0330976381786
300.0310422514463
300.0284647535392
300.0253092751635
300.0215402979387
300.0171475762559
300.012147051426
300.006578743074
300.0005083490341
299.9940467190391
299.9873776449532
299.9808281181234
299.9750770669895
299.971160012541
299.9694613574172
299.9690487346826
299.9690070039343
299.9691307671339
299.9694084844841
299.969886481874
299.970593424633
299.9715741678894
299.9728783209227
299.9745558372068
299.9766595843596
299.9792430689809
299.9823504303616
299.9860061996369
299.9902109123609
299.9949418004064
300.0001568314507
300.0057989144905
300.0117863642909
300.0179931718156
300.0242179308054
300.0300394464223
300.0346393453186
300.0372421466844
300.0381168544768
300.0382540089068
300.0382126377901
300.0380184263141
300.0376335171089
300.0370302624113
300.0361763083106
300.0350321231383
300.0335508945208
300.0316748396932
300.0293331319057
300.0264503250675
300.0229637122304
300.0188397366193
300.0140812882005
300.0087264807955
300.0028427557029
299.9965333632214
299.9899609023863
299.9833861560975
299.9773361213715
299.9727714249302
299.9703835468011
299.9696507001474
299.9695343917596
299.9695603743335
299.969749797927
299.9701467605233
299.9707908229261
299.9717191497004
299.9729627845628
299.9745465653453
299.9764995880845
299.9788677606761
299.9817128398003
299.9850947788076
299.989048376517
299.9935685861608
299.9986101338469
300.0041012282916
300.0099539436638
300.0160519762543
300.0222314028153
300.0281841648484
300.0332321590878
300.0365251513406
300.0378881846281
300.0381662127534
300.0382000093026
300.0380994712881
300.037830331224
300.0373288489692
300.0365416061173
300.0354226551711
300.0339450189501
300.0320994694356
300.02987922482
300.0272606589263
300.0241808455681
300.0205176139522
300.0161106329359
300.0108527406603
300.0048453593191
299.9984705192122
299.9926811970439
299.9869484091974
)
;

boundaryField
{
    inlet
    {
        type            fixedValue;
        value           uniform 300;
    }
    outlet
    {
        type            temperatureOutletNSCBC;
        pInf            101325;
        gamma           1.4;
        etaAc           1;
        fieldInf        1;
        lInf            2.25;
        value           uniform 299.984377574399;
    }
    frontAndBack
    {
        type            empty;
    }
}


// ************************************************************************* //
