/*--------------------------------*- C++ -*----------------------------------*\
| =========                 |                                                 |
| \\      /  F ield         | OpenFOAM: The Open Source CFD Toolbox           |
|  \\    /   O peration     | Version:  v2012                                 |
|   \\  /    A nd           | Website:  www.openfoam.com                      |
|    \\/     M anipulation  |                                                 |
\*---------------------------------------------------------------------------*/
FoamFile
{
    version     2.0;
    format      ascii;
    class       volVectorField;
    location    "0.0165";
    object      U;
}
// * * * * * * * * * * * * * * * * * * * * * * * * * * * * * * * * * * * * * //

dimensions      [0 1 -1 0 0 0 0];


internalField   nonuniform List<vector> 
1000
(
(0.001281621916906388 0 0)
(0.03272660137598277 0 0)
(0.0405546974026096 0 0)
(0.05565731394013602 0 0)
(0.06961186682086858 0 0)
(0.08266464764430645 0 0)
(0.0938374095693241 0 0)
(0.1034225978523479 0 0)
(0.11152813202529 0 0)
(0.1169251951736179 0 0)
(0.1185464940351723 0 0)
(0.1184700316558829 0 0)
(0.1176544848497104 0 0)
(0.1152383930754049 0 0)
(0.110504578365394 0 0)
(0.1032357473940805 0 0)
(0.09369265035127031 0 0)
(0.0823107586962688 0 0)
(0.06945821074973726 0 0)
(0.05538605586195926 0 0)
(0.040300656267095 0 0)
(0.02443807439562311 0 0)
(0.008085134950970997 0 0)
(-0.008442915733972232 0 0)
(-0.02483102482801718 0 0)
(-0.04077536632788805 0 0)
(-0.05599683316381932 0 0)
(-0.07029011110800257 0 0)
(-0.08358086996964885 0 0)
(-0.09586915118374796 0 0)
(-0.1067982516177177 0 0)
(-0.1149661346341247 0 0)
(-0.1188923165468036 0 0)
(-0.1195854320097769 0 0)
(-0.1194342139648833 0 0)
(-0.1187464059349322 0 0)
(-0.1169086429216145 0 0)
(-0.1133121270026091 0 0)
(-0.1074704002834973 0 0)
(-0.09915396092949783 0 0)
(-0.08846803903861675 0 0)
(-0.07579140367084111 0 0)
(-0.06162161934460317 0 0)
(-0.04642474657360821 0 0)
(-0.03056428351203131 0 0)
(-0.01431488040277335 0 0)
(0.002084673811000928 0 0)
(0.01838925709403023 0 0)
(0.03434522371138179 0 0)
(0.04973761524014093 0 0)
(0.064447433195038 0 0)
(0.07842634684735973 0 0)
(0.09153181971618939 0 0)
(0.1030836677569541 0 0)
(0.1113034905188405 0 0)
(0.1148314347204472 0 0)
(0.1154182582147559 0 0)
(0.1150939547040418 0 0)
(0.1144235238727764 0 0)
(0.1128085946144556 0 0)
(0.1097765964389951 0 0)
(0.1048408938417152 0 0)
(0.09764149590891651 0 0)
(0.08804061972037978 0 0)
(0.07615913777737063 0 0)
(0.06234716761164079 0 0)
(0.04709548052649181 0 0)
(0.03092401699643154 0 0)
(0.01429448767361999 0 0)
(-0.00242847070318821 0 0)
(-0.01897518845229196 0 0)
(-0.03515252168463343 0 0)
(-0.05083730764851842 0 0)
(-0.0659754351771131 0 0)
(-0.08051137950816813 0 0)
(-0.09415983410738644 0 0)
(-0.1059177339179244 0 0)
(-0.1137921073973193 0 0)
(-0.1168814630833973 0 0)
(-0.1173171117566719 0 0)
(-0.1170838733627932 0 0)
(-0.1164757608879178 0 0)
(-0.1150343065468787 0 0)
(-0.1123271876167848 0 0)
(-0.107911244562315 0 0)
(-0.1014184504556409 0 0)
(-0.09264059542237806 0 0)
(-0.08158015532149787 0 0)
(-0.06845770465512427 0 0)
(-0.05367225233882499 0 0)
(-0.03772496091312293 0 0)
(-0.02112953783693135 0 0)
(-0.004335078310878794 0 0)
(0.01232064614039296 0 0)
(0.02862241221437077 0 0)
(0.04446915194848103 0 0)
(0.05984410590862151 0 0)
(0.07470036248662162 0 0)
(0.08872786550291181 0 0)
(0.1009482951987966 0 0)
(0.1093707923571 0 0)
(0.112805823267797 0 0)
(0.1133517554090119 0 0)
(0.1130285624142312 0 0)
(0.1124277974252623 0 0)
(0.1111084311426874 0 0)
(0.1086967583011479 0 0)
(0.1047794210528853 0 0)
(0.09898379567785774 0 0)
(0.09104132550845237 0 0)
(0.08083933305757798 0 0)
(0.06845561489589541 0 0)
(0.05416162182114823 0 0)
(0.03838604814233557 0 0)
(0.02164554407309458 0 0)
(0.004458317658629998 0 0)
(-0.0127377024216577 0 0)
(-0.02963650960796775 0 0)
(-0.04607614994963155 0 0)
(-0.06200705879952981 0 0)
(-0.07736214777492596 0 0)
(-0.09176571508153089 0 0)
(-0.1040614739284949 0 0)
(-0.1121825388589616 0 0)
(-0.1153202076044708 0 0)
(-0.1158036900709821 0 0)
(-0.1155118432546081 0 0)
(-0.1149820881627669 0 0)
(-0.1137663891041248 0 0)
(-0.1115388845127228 0 0)
(-0.1079181821407028 0 0)
(-0.1025466115031843 0 0)
(-0.09515376527446874 0 0)
(-0.085601371540949 0 0)
(-0.07391363558398818 0 0)
(-0.06028709961011261 0 0)
(-0.04507309016340725 0 0)
(-0.02873087286935683 0 0)
(-0.01175662176140289 0 0)
(0.00539659412201785 0 0)
(0.02238108382958418 0 0)
(0.03898382963761059 0 0)
(0.05511589446067282 0 0)
(0.0706951339779576 0 0)
(0.08536981051148027 0 0)
(0.09814227091804227 0 0)
(0.1071050140465759 0 0)
(0.110941662173399 0 0)
(0.1115934231353034 0 0)
(0.1113300043093672 0 0)
(0.1107710463803675 0 0)
(0.1096480910295394 0 0)
(0.107637486545209 0 0)
(0.1043796460941253 0 0)
(0.09953001218430604 0 0)
(0.09279490107449652 0 0)
(0.08397519466220518 0 0)
(0.07300663189560748 0 0)
(0.05998538190185824 0 0)
(0.04516954762002263 0 0)
(0.02895297812232238 0 0)
(0.01181087738789785 0 0)
(-0.005775849424600525 0 0)
(-0.02339328872835366 0 0)
(-0.04073973977388964 0 0)
(-0.05763075060343602 0 0)
(-0.07389922304263896 0 0)
(-0.08909626668301471 0 0)
(-0.1020300441429145 0 0)
(-0.1106679367426385 0 0)
(-0.1141162509461137 0 0)
(-0.1146790141539542 0 0)
(-0.1144123652777457 0 0)
(-0.113923114578241 0 0)
(-0.1128708821146196 0 0)
(-0.1109748814314177 0 0)
(-0.1079046235930682 0 0)
(-0.103332646892098 0 0)
(-0.09697819846390063 0 0)
(-0.08864667718112308 0 0)
(-0.07825999181809561 0 0)
(-0.06587756258763075 0 0)
(-0.05170250534316376 0 0)
(-0.03606667832432885 0 0)
(-0.01939060912374433 0 0)
(-0.00212134391931291 0 0)
(0.01533299956004392 0 0)
(0.03264968477776442 0 0)
(0.04961159229330903 0 0)
(0.06603536752710544 0 0)
(0.08150198356355962 0 0)
(0.09499353350731392 0 0)
(0.1046947348340375 0 0)
(0.1091349945635353 0 0)
(0.1099588107997692 0 0)
(0.1097864637031165 0 0)
(0.1092579996999937 0 0)
(0.1082790721149599 0 0)
(0.1065534442205167 0 0)
(0.1037698430604943 0 0)
(0.09961879211039129 0 0)
(0.09381078613622797 0 0)
(0.08611129257861595 0 0)
(0.07637983206341582 0 0)
(0.06459992109722476 0 0)
(0.05089370501536998 0 0)
(0.03551898877556686 0 0)
(0.0188441087699801 0 0)
(0.001298144128430603 0 0)
(-0.01668984859808758 0 0)
(-0.03474007192410827 0 0)
(-0.05254872670313984 0 0)
(-0.06982806467710123 0 0)
(-0.08602398147388345 0 0)
(-0.09985940848863308 0 0)
(-0.1092797848084112 0 0)
(-0.1132365451206983 0 0)
(-0.1139224791744198 0 0)
(-0.1137139921197523 0 0)
(-0.1132435914813023 0 0)
(-0.1123126843056873 0 0)
(-0.1106657674870224 0 0)
(-0.1080115806486166 0 0)
(-0.1040538196928946 0 0)
(-0.09851782559251453 0 0)
(-0.09118530548345927 0 0)
(-0.08192287435754676 0 0)
(-0.07070339178806903 0 0)
(-0.05761939910637992 0 0)
(-0.04288461083580863 0 0)
(-0.02681679712803185 0 0)
(-0.009798192163252221 0 0)
(0.007776033217347292 0 0)
(0.02554039416957325 0 0)
(0.04319006139619577 0 0)
(0.06045210651842805 0 0)
(0.07684075835935378 0 0)
(0.0912714786466195 0 0)
(0.1019238833420061 0 0)
(0.1071510674178783 0 0)
(0.108242369124263 0 0)
(0.1081695354926215 0 0)
(0.1076644274083607 0 0)
(0.1068039750967531 0 0)
(0.1052929509799564 0 0)
(0.1028671884569895 0 0)
(0.09925070509711519 0 0)
(0.09417036194630102 0 0)
(0.0873814927773858 0 0)
(0.078703319396056 0 0)
(0.06804837070778344 0 0)
(0.05544093482212353 0 0)
(0.04102499694104044 0 0)
(0.02505767463319489 0 0)
(0.007881718811249798 0 0)
(-0.01011763540069289 0 0)
(-0.02855105927329402 0 0)
(-0.04705103298656485 0 0)
(-0.06524405205587973 0 0)
(-0.08250331669948195 0 0)
(-0.09747930055245078 0 0)
(-0.1080336842110404 0 0)
(-0.1128206843959755 0 0)
(-0.1137532832688974 0 0)
(-0.11363035460907 0 0)
(-0.1131820496627641 0 0)
(-0.1123519582944768 0 0)
(-0.1108995517724548 0 0)
(-0.1085728746345249 0 0)
(-0.1051071337384201 0 0)
(-0.1002416687013591 0 0)
(-0.09375029660745453 0 0)
(-0.08546817915736381 0 0)
(-0.07531150295431477 0 0)
(-0.06329262257601653 0 0)
(-0.04952920532011611 0 0)
(-0.03424102688829563 0 0)
(-0.01772814035612116 0 0)
(-0.000334620592718161 0 0)
(0.01758448977480445 0 0)
(0.03568822805233986 0 0)
(0.05364462017992268 0 0)
(0.07093092294674085 0 0)
(0.08641650477173546 0 0)
(0.09823175347000332 0 0)
(0.1045303410171864 0 0)
(0.1060786560686654 0 0)
(0.1061156219576543 0 0)
(0.1056578234125138 0 0)
(0.1049043320153839 0 0)
(0.103571440128912 0 0)
(0.1014337806587973 0 0)
(0.09825210365563769 0 0)
(0.09377866008868892 0 0)
(0.08777447975321499 0 0)
(0.0800415228689017 0 0)
(0.0704517715821275 0 0)
(0.05896602240485924 0 0)
(0.04564534114547134 0 0)
(0.03065437181254422 0 0)
(0.01424915268003163 0 0)
(-0.003250402578750407 0 0)
(-0.02148642476397268 0 0)
(-0.04007962847895731 0 0)
(-0.05861897167409965 0 0)
(-0.07645896547944797 0 0)
(-0.09223365664962942 0 0)
(-0.1037399738516385 0 0)
(-0.1093624866192234 0 0)
(-0.1106098107252293 0 0)
(-0.1105839835856336 0 0)
(-0.1101677935851245 0 0)
(-0.1094349717508353 0 0)
(-0.1081493315051105 0 0)
(-0.1061015397699901 0 0)
(-0.1030616458780382 0 0)
(-0.09879356349246962 0 0)
(-0.09307991532193102 0 0)
(-0.08574579275208409 0 0)
(-0.07667538053345824 0 0)
(-0.06582591024038756 0 0)
(-0.05324014640039596 0 0)
(-0.03905188013560683 0 0)
(-0.02347710149863214 0 0)
(-0.006790522769111022 0 0)
(0.01069762094965431 0 0)
(0.02865496088018897 0 0)
(0.04673099128344338 0 0)
(0.06442345973568434 0 0)
(0.0806562161448284 0 0)
(0.09355595032455577 0 0)
(0.1011111350709721 0 0)
(0.1033955006730865 0 0)
(0.1035642701494923 0 0)
(0.1032092605413195 0 0)
(0.1025557169096993 0 0)
(0.1014023313791753 0 0)
(0.09954069191910968 0 0)
(0.09676509628957573 0 0)
(0.09285745724937192 0 0)
(0.08759165079005174 0 0)
(0.08076293989182196 0 0)
(0.07221486330576331 0 0)
(0.06185584308580411 0 0)
(0.04967133908453365 0 0)
(0.03573332627876555 0 0)
(0.02020037666413703 0 0)
(0.003304232012189501 0 0)
(-0.01466373656322096 0 0)
(-0.033354470696981 0 0)
(-0.05234987502730773 0 0)
(-0.07101347263105436 0 0)
(-0.0880187864135578 0 0)
(-0.1010742613739483 0 0)
(-0.1081260302006406 0 0)
(-0.1100367598456268 0 0)
(-0.110151160873176 0 0)
(-0.1097902873139038 0 0)
(-0.1091627279045643 0 0)
(-0.1080214320219948 0 0)
(-0.1061917142619299 0 0)
(-0.1034724525490146 0 0)
(-0.09964798437167267 0 0)
(-0.09451015293870105 0 0)
(-0.08788107274929997 0 0)
(-0.07962772894696968 0 0)
(-0.06967227839744514 0 0)
(-0.05800338582455861 0 0)
(-0.04468578399141533 0 0)
(-0.02986059151543898 0 0)
(-0.01373246547284709 0 0)
(0.003445021671339031 0 0)
(0.02137208715643936 0 0)
(0.03970189223203812 0 0)
(0.05796184890016248 0 0)
(0.07516493298118807 0 0)
(0.08941720117037946 0 0)
(0.09850998206859611 0 0)
(0.1018610464052709 0 0)
(0.1022457071393598 0 0)
(0.1020016225776778 0 0)
(0.1014391215920606 0 0)
(0.1004349092059057 0 0)
(0.09878298249379278 0 0)
(0.09629933273027562 0 0)
(0.09278978272297965 0 0)
(0.08804502604595532 0 0)
(0.08186495247258611 0 0)
(0.07408226994572714 0 0)
(0.06457695239336973 0 0)
(0.05328792633374985 0 0)
(0.04022468369962825 0 0)
(0.02547382905763581 0 0)
(0.00919498929191811 0 0)
(-0.008384314174845316 0 0)
(-0.0269601096168094 0 0)
(-0.04613585826161089 0 0)
(-0.06532690254490635 0 0)
(-0.0833420381396027 0 0)
(-0.09791271109199774 0 0)
(-0.1065957756111128 0 0)
(-0.1094838056410503 0 0)
(-0.1097960104804099 0 0)
(-0.109525188927494 0 0)
(-0.1089972858396684 0 0)
(-0.1080032112615533 0 0)
(-0.1063748684136251 0 0)
(-0.1039336049001097 0 0)
(-0.1004828690803169 0 0)
(-0.09582584833120313 0 0)
(-0.08978833224223493 0 0)
(-0.08223067030595661 0 0)
(-0.07305460049126311 0 0)
(-0.062212899133685 0 0)
(-0.04972039160416952 0 0)
(-0.03565958780000208 0 0)
(-0.02017569719801489 0 0)
(-0.003467764366867247 0 0)
(0.0142088073345641 0 0)
(0.03253178003204957 0 0)
(0.05107055320590709 0 0)
(0.06898884680911255 0 0)
(0.08451178683078064 0 0)
(0.09527651475638768 0 0)
(0.1000685623035132 0 0)
(0.1008835361092076 0 0)
(0.1007577289885979 0 0)
(0.1002991035747704 0 0)
(0.09945244954108198 0 0)
(0.0980034133139107 0 0)
(0.0957853413102655 0 0)
(0.09262713014306247 0 0)
(0.08833699392450312 0 0)
(0.08272211714978808 0 0)
(0.07561133355546978 0 0)
(0.06686822254271969 0 0)
(0.05640099172396557 0 0)
(0.04417381598167319 0 0)
(0.03021693475798282 0 0)
(0.01462947345408347 0 0)
(-0.002421231147938963 0 0)
(-0.02068725733639677 0 0)
(-0.03981447398648096 0 0)
(-0.05927888737201748 0 0)
(-0.07806194434055848 0 0)
(-0.09405260719776229 0 0)
(-0.104526080158552 0 0)
(-0.1087368931512465 0 0)
(-0.109400907734004 0 0)
(-0.1092407456177208 0 0)
(-0.1088196895582945 0 0)
(-0.1079807316229175 0 0)
(-0.1065521654937545 0 0)
(-0.1043715121513907 0 0)
(-0.1012594261400524 0 0)
(-0.09702889719619492 0 0)
(-0.09151039083843414 0 0)
(-0.0845637319525883 0 0)
(-0.07608137799508791 0 0)
(-0.06599446454655598 0 0)
(-0.05428276017264507 0 0)
(-0.04098315168120349 0 0)
(-0.02619070798027599 0 0)
(-0.01005385983318882 0 0)
(0.007221050551347651 0 0)
(0.02535070056247405 0 0)
(0.04394748289818339 0 0)
(0.06233160930670259 0 0)
(0.07896107679003334 0 0)
(0.09139112808511878 0 0)
(0.09786890866163499 0 0)
(0.09942345709419151 0 0)
(0.09944409549674228 0 0)
(0.09910561556260832 0 0)
(0.09842525996702092 0 0)
(0.097181972936932 0 0)
(0.09522123447273324 0 0)
(0.09238754434033036 0 0)
(0.08850314445512972 0 0)
(0.08338465783978798 0 0)
(0.07686464891115123 0 0)
(0.06880100652005638 0 0)
(0.05908338503981777 0 0)
(0.04764402338901252 0 0)
(0.03446995703016846 0 0)
(0.01961026688168884 0 0)
(0.003178489992801203 0 0)
(-0.01463273443198045 0 0)
(-0.03351891515831238 0 0)
(-0.05301933485412198 0 0)
(-0.07229935090629747 0 0)
(-0.08952425587336597 0 0)
(-0.1018410869537601 0 0)
(-0.1076893717102898 0 0)
(-0.1089763852003154 0 0)
(-0.1089410870878114 0 0)
(-0.1086310410587723 0 0)
(-0.1079519483272119 0 0)
(-0.106725085765658 0 0)
(-0.1047964513579124 0 0)
(-0.1020009215905965 0 0)
(-0.09816087703950933 0 0)
(-0.09311118793861327 0 0)
(-0.08671281108761919 0 0)
(-0.07885412840457595 0 0)
(-0.0694537017305117 0 0)
(-0.05846830538289743 0 0)
(-0.04590197862219929 0 0)
(-0.03181037021981797 0 0)
(-0.01629874918213782 0 0)
(0.0004724318251761782 0 0)
(0.01826423944567874 0 0)
(0.03673394002558926 0 0)
(0.05533077630879528 0 0)
(0.0728100805390683 0 0)
(0.0868006181150046 0 0)
(0.09509798764882627 0 0)
(0.09783274495658839 0 0)
(0.09805610349873677 0 0)
(0.09783873556725725 0 0)
(0.09732418902382127 0 0)
(0.09628724524500913 0 0)
(0.09457805595290367 0 0)
(0.09205138667474901 0 0)
(0.08854089829136613 0 0)
(0.08387243177474117 0 0)
(0.07788427928155051 0 0)
(0.07043358544366057 0 0)
(0.06139977671781006 0 0)
(0.05069438096867033 0 0)
(0.03827378898691793 0 0)
(0.02414875419009917 0 0)
(0.00838886180678446 0 0)
(-0.008864619931438486 0 0)
(-0.02736434846629113 0 0)
(-0.04671425005170784 0 0)
(-0.06622931227575803 0 0)
(-0.08440971088797465 0 0)
(-0.09850717033974507 0 0)
(-0.1062117348878492 0 0)
(-0.1084707615379935 0 0)
(-0.1086241527086939 0 0)
(-0.1084202782371129 0 0)
(-0.1079021994497546 0 0)
(-0.106875264228814 0 0)
(-0.1051940159451896 0 0)
(-0.1027022104758825 0 0)
(-0.09922814021625469 0 0)
(-0.09460934040905752 0 0)
(-0.08870904047116726 0 0)
(-0.08141564408509283 0 0)
(-0.07264142502598096 0 0)
(-0.06232854396929319 0 0)
(-0.05045808486129953 0 0)
(-0.03705604781393047 0 0)
(-0.02219386880159977 0 0)
(-0.005992579413574004 0 0)
(0.01135589104287353 0 0)
(0.02955915287299539 0 0)
(0.04815832361336035 0 0)
(0.06619356000837338 0 0)
(0.08156839011450277 0 0)
(0.09171958036304943 0 0)
(0.09595376544376731 0 0)
(0.09659436205720107 0 0)
(0.09649206592039555 0 0)
(0.09614234365823345 0 0)
(0.09531431711020422 0 0)
(0.09385405406124246 0 0)
(0.09162375896281304 0 0)
(0.08846752917049701 0 0)
(0.0842161729344431 0 0)
(0.07871245361692358 0 0)
(0.07181783975321872 0 0)
(0.06341041898533448 0 0)
(0.05339001540332301 0 0)
(0.04169067173280371 0 0)
(0.02829259494840204 0 0)
(0.01322910733266639 0 0)
(-0.003403159309008768 0 0)
(-0.02141204888816686 0 0)
(-0.04046280362708352 0 0)
(-0.05998929848010954 0 0)
(-0.0788212414328711 0 0)
(-0.09450438190675912 0 0)
(-0.1041737567627265 0 0)
(-0.1077592870530616 0 0)
(-0.1082579427857083 0 0)
(-0.1081413056476125 0 0)
(-0.107778928542644 0 0)
(-0.106954924057038 0 0)
(-0.1055207691840953 0 0)
(-0.1033281107345801 0 0)
(-0.1002087326352113 0 0)
(-0.09600016790748815 0 0)
(-0.09056590219906807 0 0)
(-0.08379501377231814 0 0)
(-0.07559756616739891 0 0)
(-0.06590790537789853 0 0)
(-0.05469247257924179 0 0)
(-0.04195626462737063 0 0)
(-0.02774492695820135 0 0)
(-0.01214614138277978 0 0)
(0.004691629361091193 0 0)
(0.02252095658695621 0 0)
(0.04095211886772847 0 0)
(0.05926412844249186 0 0)
(0.07575823843077477 0 0)
(0.08769485435346136 0 0)
(0.09362925680950275 0 0)
(0.09502531110092505 0 0)
(0.09507710525893169 0 0)
(0.09485811712032922 0 0)
(0.09424317025748678 0 0)
(0.09303380656062053 0 0)
(0.09109884933737546 0 0)
(0.0882875166185845 0 0)
(0.08443359311863284 0 0)
(0.07938285175377656 0 0)
(0.07300206803079044 0 0)
(0.06517172593478701 0 0)
(0.05578599216173367 0 0)
(0.0447645857112712 0 0)
(0.0320663423509621 0 0)
(0.01769784546582062 0 0)
(0.001720075523296061 0 0)
(-0.01572588559964412 0 0)
(-0.03436578185915681 0 0)
(-0.05372956184392127 0 0)
(-0.07291220822406648 0 0)
(-0.08987564473174718 0 0)
(-0.101534993312252 0 0)
(-0.1067461506468589 0 0)
(-0.1078526872843556 0 0)
(-0.1078231673070289 0 0)
(-0.107603154848921 0 0)
(-0.1069752783183106 0 0)
(-0.1057806267970421 0 0)
(-0.1038788125604384 0 0)
(-0.1011055267470627 0 0)
(-0.09729540819793758 0 0)
(-0.0923083722815996 0 0)
(-0.08603273745357963 0 0)
(-0.0783776653317436 0 0)
(-0.06927270669341316 0 0)
(-0.05867450034009125 0 0)
(-0.04657367516932923 0 0)
(-0.03299754167982551 0 0)
(-0.01800999615835006 0 0)
(-0.001725443291914141 0 0)
(0.01565458585883599 0 0)
(0.03380743480483911 0 0)
(0.05217130960584061 0 0)
(0.06944111167478022 0 0)
(0.08302711481954385 0 0)
(0.09078512285782789 0 0)
(0.09330348162650924 0 0)
(0.09355463607636887 0 0)
(0.09347259307415272 0 0)
(0.09305619297345925 0 0)
(0.09209558567239405 0 0)
(0.09045359252455763 0 0)
(0.08798102814267314 0 0)
(0.08451505571032109 0 0)
(0.07990030485157909 0 0)
(0.07400476955200755 0 0)
(0.06671307980661186 0 0)
(0.05792006006249731 0 0)
(0.04753784569053088 0 0)
(0.03550980727847365 0 0)
(0.02182154284259335 0 0)
(0.006506786894715329 0 0)
(-0.01033438627297288 0 0)
(-0.02848586636855814 0 0)
(-0.04755854574532813 0 0)
(-0.06683829383592105 0 0)
(-0.08473087222266566 0 0)
(-0.0982876537747055 0 0)
(-0.1053485742392897 0 0)
(-0.1073724195738762 0 0)
(-0.1074830636224157 0 0)
(-0.107388049047052 0 0)
(-0.1069377551994724 0 0)
(-0.1059742690481316 0 0)
(-0.1043536339140462 0 0)
(-0.1019157241404914 0 0)
(-0.09849148711730712 0 0)
(-0.09393554758457144 0 0)
(-0.08813402456157515 0 0)
(-0.08099485857941861 0 0)
(-0.07244397265581402 0 0)
(-0.06243101497880629 0 0)
(-0.05093628049449715 0 0)
(-0.03797393436620679 0 0)
(-0.02359205514662184 0 0)
(-0.007878933123735627 0 0)
(0.009007714454854411 0 0)
(0.02679630737560304 0 0)
(0.04502552718442806 0 0)
(0.06273325930884055 0 0)
(0.07775454004956461 0 0)
(0.0873864957876043 0 0)
(0.09131703420094163 0 0)
(0.09193426598758943 0 0)
(0.09200279059341462 0 0)
(0.09175300742947713 0 0)
(0.0910375504137529 0 0)
(0.08967808134325753 0 0)
(0.08753575852166813 0 0)
(0.08444901433688763 0 0)
(0.08025778547636962 0 0)
(0.07482887166004162 0 0)
(0.06805073909897214 0 0)
(0.05982071969564518 0 0)
(0.05004688067474038 0 0)
(0.03866171760714855 0 0)
(0.02563512033587591 0 0)
(0.01098166677611379 0 0)
(-0.005229471392772631 0 0)
(-0.02283645326160139 0 0)
(-0.04151822399121515 0 0)
(-0.06069489355236746 0 0)
(-0.07915998655856972 0 0)
(-0.09437365594150753 0 0)
(-0.1034364584321353 0 0)
(-0.1066931928705369 0 0)
(-0.1071302702549524 0 0)
(-0.1071268429343235 0 0)
(-0.1068312682378226 0 0)
(-0.1060860899478986 0 0)
(-0.1047297722186502 0 0)
(-0.1026111628408748 0 0)
(-0.09955974657528277 0 0)
(-0.0954228551821337 0 0)
(-0.09008160786661799 0 0)
(-0.08344180137123246 0 0)
(-0.07542595172201358 0 0)
(-0.06597701958480273 0 0)
(-0.05506592393877958 0 0)
(-0.04269642142994593 0 0)
(-0.02890560406328654 0 0)
(-0.01376401082910987 0 0)
(0.002603029181066817 0 0)
(0.01996726959906758 0 0)
(0.03794944591081426 0 0)
(0.05583161814673114 0 0)
(0.07193243856286852 0 0)
(0.08338834842325352 0 0)
(0.08892793056077812 0 0)
(0.09028768996824671 0 0)
(0.09045704962551569 0 0)
(0.0903498689082108 0 0)
(0.08986173135165171 0 0)
(0.08878390048236931 0 0)
(0.08696799348296959 0 0)
(0.08425226511698718 0 0)
(0.08047476111557761 0 0)
(0.07549803723848564 0 0)
(0.06921125690189647 0 0)
(0.06151595720974519 0 0)
(0.05232122039344113 0 0)
(0.04155282936957445 0 0)
(0.02916741986908335 0 0)
(0.01516331539358017 0 0)
(-0.0004133666605096101 0 0)
(-0.01744145557092468 0 0)
(-0.03565769605183155 0 0)
(-0.05458790756044739 0 0)
(-0.07332304919879414 0 0)
(-0.08982796176039182 0 0)
(-0.1009432367540288 0 0)
(-0.1057359729772333 0 0)
(-0.1067770585307502 0 0)
(-0.1068210478992926 0 0)
(-0.1066731355191416 0 0)
(-0.106130000445302 0 0)
(-0.1050258636534746 0 0)
(-0.1032119699074027 0 0)
(-0.1005160334173303 0 0)
(-0.09677983268181388 0 0)
(-0.09188131824048124 0 0)
(-0.08572574899535013 0 0)
(-0.07823271241574306 0 0)
(-0.06933743313695948 0 0)
(-0.05899983782271946 0 0)
(-0.04721155053514927 0 0)
(-0.03399848966511314 0 0)
(-0.01942081880741874 0 0)
(-0.0035834193164311 0 0)
(0.01332663811805302 0 0)
(0.03099120890994238 0 0)
(0.0488396809163267 0 0)
(0.0656098748763967 0 0)
(0.07877844454437584 0 0)
(0.08610158096469477 0 0)
(0.08853457670633284 0 0)
(0.08879226140297196 0 0)
(0.08886499067511772 0 0)
(0.08857198960894276 0 0)
(0.08775913183737273 0 0)
(0.08625845055209713 0 0)
(0.08390693939544056 0 0)
(0.08053325989928029 0 0)
(0.07599305990585531 0 0)
(0.07017720928432795 0 0)
(0.062994173780181 0 0)
(0.05435676882590947 0 0)
(0.04418636113132177 0 0)
(0.03242734365120756 0 0)
(0.01906112071707819 0 0)
(0.004115379721051855 0 0)
(-0.01231880803753032 0 0)
(-0.03003484454964947 0 0)
(-0.048639667738756 0 0)
(-0.06740849173460198 0 0)
(-0.08477498230880401 0 0)
(-0.09784686005460849 0 0)
(-0.1044598531039223 0 0)
(-0.1063658336795331 0 0)
(-0.1064797143728498 0 0)
(-0.1064840497985187 0 0)
(-0.1061220287322234 0 0)
(-0.1052643992913864 0 0)
(-0.1037482347787874 0 0)
(-0.1014000380738364 0 0)
(-0.09805013187242524 0 0)
(-0.09356986226234426 0 0)
(-0.08786756539095732 0 0)
(-0.0808684299232965 0 0)
(-0.07250739139135687 0 0)
(-0.06273566560229064 0 0)
(-0.05152989692314537 0 0)
(-0.0388991306096399 0 0)
(-0.02488834672990984 0 0)
(-0.009583366932635614 0 0)
(0.006860395221825205 0 0)
(0.02416395428770924 0 0)
(0.04185767717465533 0 0)
(0.05900932576042569 0 0)
(0.07358110527835708 0 0)
(0.08278817487087421 0 0)
(0.08646647864836879 0 0)
(0.08713318179480573 0 0)
(0.0872725954363123 0 0)
(0.08713143908988434 0 0)
(0.08658104087915061 0 0)
(0.08540219886665149 0 0)
(0.08342157933855532 0 0)
(0.08045560803412546 0 0)
(0.07634764161091638 0 0)
(0.07098407883075929 0 0)
(0.06428005326881618 0 0)
(0.05616169472019286 0 0)
(0.04656041916863918 0 0)
(0.03541692314773308 0 0)
(0.02269378037772171 0 0)
(0.008393354692368651 0 0)
(-0.007425431272955636 0 0)
(-0.02460597249456128 0 0)
(-0.04281579046008589 0 0)
(-0.06146246259725405 0 0)
(-0.07937082282117004 0 0)
(-0.09409952198543549 0 0)
(-0.1027459652945343 0 0)
(-0.1057482919355305 0 0)
(-0.1062138058768658 0 0)
(-0.1062241734891348 0 0)
(-0.1060119384966012 0 0)
(-0.1053856485951575 0 0)
(-0.1041705914038677 0 0)
(-0.1021802601882551 0 0)
(-0.09922362233842726 0 0)
(-0.09515418606547897 0 0)
(-0.08987780133466128 0 0)
(-0.08333111048438877 0 0)
(-0.07546258008395774 0 0)
(-0.06622856363531503 0 0)
(-0.05559836283145576 0 0)
(-0.04356268514771705 0 0)
(-0.03014309102092077 0 0)
(-0.01539947880517068 0 0)
(0.0005473777527802621 0 0)
(0.01746353253777764 0 0)
(0.03494822492235674 0 0)
(0.05226799118455928 0 0)
(0.06782262110715749 0 0)
(0.07894242693419937 0 0)
(0.08417093423875056 0 0)
(0.08554024393904233 0 0)
(0.08556722469649349 0 0)
(0.0855959770848715 0 0)
(0.08524540847625754 0 0)
(0.08437199708484092 0 0)
(0.08278108894460111 0 0)
(0.08025708871264541 0 0)
(0.07660627475302374 0 0)
(0.07169455169932983 0 0)
(0.06544129644976293 0 0)
(0.05779336906009586 0 0)
(0.04870506616321392 0 0)
(0.03813183320880898 0 0)
(0.02603482150399167 0 0)
(0.01239531385979268 0 0)
(-0.002765517433258264 0 0)
(-0.01935138846289788 0 0)
(-0.03710998369083285 0 0)
(-0.0555484487242463 0 0)
(-0.07373730139385912 0 0)
(-0.0897015513446434 0 0)
(-0.1004651350994678 0 0)
(-0.1050055643746074 0 0)
(-0.1059965778315784 0 0)
(-0.1059296645629053 0 0)
(-0.1058146077537904 0 0)
(-0.1053514988547382 0 0)
(-0.1044097972452588 0 0)
(-0.1027908307722765 0 0)
(-0.1002733320462448 0 0)
(-0.0966631686597139 0 0)
(-0.0918310335071109 0 0)
(-0.08570874638026185 0 0)
(-0.07826746271277048 0 0)
(-0.069495668387279 0 0)
(-0.05938493795546438 0 0)
(-0.04792703994008943 0 0)
(-0.03512276307180182 0 0)
(-0.02099678255782431 0 0)
(-0.005619178644655979 0 0)
(0.01083906251891231 0 0)
(0.02803961943019476 0 0)
(0.04539232656913457 0 0)
(0.06166227859718252 0 0)
(0.07448571546741103 0 0)
(0.08160283688088232 0 0)
(0.08380648780715157 0 0)
(0.08406094583966227 0 0)
(0.08397775787472783 0 0)
(0.08371780178510063 0 0)
(0.08307439404683192 0 0)
(0.08185284428055802 0 0)
(0.0798139142404356 0 0)
(0.07670822501062229 0 0)
(0.07233266125840192 0 0)
(0.06656066949677357 0 0)
(0.05934000471158325 0 0)
(0.05066811327007357 0 0)
(0.04055788780411063 0 0)
(0.02900999916392907 0 0)
(0.01600728058186231 0 0)
(0.001537487675210687 0 0)
(-0.01436706750598909 0 0)
(-0.03155357112399742 0 0)
(-0.04964611173202926 0 0)
(-0.06791769633964199 0 0)
(-0.08481297848686839 0 0)
(-0.09752824306376022 0 0)
(-0.1040324810341085 0 0)
(-0.1057911646036859 0 0)
(-0.1059098630204996 0 0)
(-0.1056875900167658 0 0)
(-0.1052549043864425 0 0)
(-0.1044530648288622 0 0)
(-0.1031315481774617 0 0)
(-0.101072998349581 0 0)
(-0.0980273787066776 0 0)
(-0.09377261966123146 0 0)
(-0.08815834621390049 0 0)
(-0.08112589326524766 0 0)
(-0.07270181251240265 0 0)
(-0.06295968638182026 0 0)
(-0.05196593646055622 0 0)
(-0.03974293723783898 0 0)
(-0.02627709307220823 0 0)
(-0.01156231845130242 0 0)
(0.004326816032103347 0 0)
(0.02113658787054657 0 0)
(0.03837879251625262 0 0)
(0.05510145464399292 0 0)
(0.06928029517481959 0 0)
(0.07841894679651076 0 0)
(0.08206963314504144 0 0)
(0.08271356671834999 0 0)
(0.08257291081772693 0 0)
(0.08227983026924793 0 0)
(0.08163056120549839 0 0)
(0.08052559581590112 0 0)
(0.07882621684946294 0 0)
(0.07631099827283534 0 0)
(0.07269950383740029 0 0)
(0.06771282106814876 0 0)
(0.06113581749226461 0 0)
(0.0528628211538498 0 0)
(0.04292759141724801 0 0)
(0.03151328770004119 0 0)
(0.01889294619391842 0 0)
(0.005219546117242986 0 0)
(-0.009611627839632158 0 0)
(-0.02611387688570216 0 0)
(-0.04323566453262057 0 0)
(-0.06385721285980958 0 0)
)
;

boundaryField
{
    inlet
    {
        type            zeroGradient;
    }
    outlet
    {
        type            velocityOutletNSCBCx;
        pInf            101325;
        gamma           1.4;
        etaAc           1;
        fieldInf        (-1 0 0);
        lInf            2.25;
        value           uniform (-0.0715838203922339 0 0);
    }
    frontAndBack
    {
        type            empty;
    }
}


// ************************************************************************* //
