/*--------------------------------*- C++ -*----------------------------------*\
| =========                 |                                                 |
| \\      /  F ield         | OpenFOAM: The Open Source CFD Toolbox           |
|  \\    /   O peration     | Version:  v2012                                 |
|   \\  /    A nd           | Website:  www.openfoam.com                      |
|    \\/     M anipulation  |                                                 |
\*---------------------------------------------------------------------------*/
FoamFile
{
    version     2.0;
    format      ascii;
    class       volVectorField;
    location    "0.0165";
    object      UMean;
}
// * * * * * * * * * * * * * * * * * * * * * * * * * * * * * * * * * * * * * //

dimensions      [0 1 -1 0 0 0 0];


internalField   nonuniform List<vector> 
1000
(
(0.0007266054930120494 0 0)
(0.0006907726536083885 0 0)
(0.0006907307784231918 0 0)
(0.0006695032917295384 0 0)
(0.0006456604022485079 0 0)
(0.0006062352236693843 0 0)
(0.0005665296606438741 0 0)
(0.0005188048732096234 0 0)
(0.0004710031166050576 0 0)
(0.0004187270253991666 0 0)
(0.0003651419406327605 0 0)
(0.0003102383416595032 0 0)
(0.0002555349957566019 0 0)
(0.0002016089533885309 0 0)
(0.0001492116059336517 0 0)
(9.966396272199605e-05 0 0)
(5.380142274370102e-05 0 0)
(1.277534067392847e-05 0 0)
(-2.292109067541572e-05 0 0)
(-5.243577023909123e-05 0 0)
(-7.543067502763356e-05 0 0)
(-9.134664918455015e-05 0 0)
(-0.0001002521482127438 0 0)
(-0.0001016887942795392 0 0)
(-9.559162015946354e-05 0 0)
(-8.229854078647154e-05 0 0)
(-6.177690919162911e-05 0 0)
(-3.458366116043088e-05 0 0)
(-1.050625564437171e-06 0 0)
(3.839293596813153e-05 0 0)
(8.332268194512133e-05 0 0)
(0.0001327603485341298 0 0)
(0.0001852913229344355 0 0)
(0.000238914501081391 0 0)
(0.0002928347919500253 0 0)
(0.0003464482692583461 0 0)
(0.0003993904280547152 0 0)
(0.0004510062832255662 0 0)
(0.0005003548094864967 0 0)
(0.0005464284704835144 0 0)
(0.0005882545850913803 0 0)
(0.0006246757182743204 0 0)
(0.0006551307195723925 0 0)
(0.0006789227591287841 0 0)
(0.0006959661587415235 0 0)
(0.0007054789620642816 0 0)
(0.0007077973823562201 0 0)
(0.000702832148465138 0 0)
(0.0006905638633233086 0 0)
(0.000671316868293885 0 0)
(0.0006452647121523177 0 0)
(0.0006126470291662261 0 0)
(0.0005738463149424772 0 0)
(0.0005293172689023153 0 0)
(0.0004799245662930859 0 0)
(0.0004275948979996099 0 0)
(0.0003739214810518955 0 0)
(0.0003205011744859782 0 0)
(0.0002670722516986162 0 0)
(0.0002141164099559672 0 0)
(0.0001622364407480158 0 0)
(0.0001120476026039615 0 0)
(6.464688261554478e-05 0 0)
(2.113906758432968e-05 0 0)
(-1.757391805639422e-05 0 0)
(-5.043243930288976e-05 0 0)
(-7.674689148334435e-05 0 0)
(-9.589587403026348e-05 0 0)
(-0.0001079001449583444 0 0)
(-0.000112354844927109 0 0)
(-0.0001091802950268714 0 0)
(-9.875699826114929e-05 0 0)
(-8.098215977104299e-05 0 0)
(-5.629363636531026e-05 0 0)
(-2.477813339448525e-05 0 0)
(1.31311859951388e-05 0 0)
(5.713673252881707e-05 0 0)
(0.0001057621907406921 0 0)
(0.0001573061006200636 0 0)
(0.0002094911099205964 0 0)
(0.0002623010604960275 0 0)
(0.0003145735455205721 0 0)
(0.0003664191866118596 0 0)
(0.0004172315456707566 0 0)
(0.0004662950442253301 0 0)
(0.00051269537436804 0 0)
(0.0005557103537519294 0 0)
(0.0005940633781185238 0 0)
(0.0006270430791819505 0 0)
(0.0006536479678650794 0 0)
(0.0006735104013796572 0 0)
(0.0006860485935226968 0 0)
(0.0006908601098810605 0 0)
(0.0006883614220078654 0 0)
(0.0006784569836981305 0 0)
(0.0006613409460292962 0 0)
(0.0006372533491514427 0 0)
(0.0006063408245351274 0 0)
(0.0005687554563882112 0 0)
(0.0005252043845943588 0 0)
(0.0004765557660892771 0 0)
(0.0004249417115016948 0 0)
(0.0003719513569832339 0 0)
(0.0003193205413832864 0 0)
(0.0002663982163918726 0 0)
(0.0002140066299247646 0 0)
(0.0001623996525664361 0 0)
(0.0001121471044064137 0 0)
(6.410098902010929e-05 0 0)
(1.922527861213149e-05 0 0)
(-2.147823838856788e-05 0 0)
(-5.707959322695574e-05 0 0)
(-8.65719692157441e-05 0 0)
(-0.000109371588432516 0 0)
(-0.0001246013299993692 0 0)
(-0.0001327508489046068 0 0)
(-0.0001328190586224041 0 0)
(-0.0001252787562416723 0 0)
(-0.0001102020282303866 0 0)
(-8.783728542965812e-05 0 0)
(-5.825916339377292e-05 0 0)
(-2.205667104515186e-05 0 0)
(2.058334416262738e-05 0 0)
(6.805496486008038e-05 0 0)
(0.0001184989906197312 0 0)
(0.0001695820561670012 0 0)
(0.0002214135131184826 0 0)
(0.0002726050376822711 0 0)
(0.0003237481920350987 0 0)
(0.0003737856070744158 0 0)
(0.0004225633125053968 0 0)
(0.000468977550867084 0 0)
(0.0005125182889718162 0 0)
(0.0005521166150674604 0 0)
(0.0005868686910902559 0 0)
(0.0006158866747381107 0 0)
(0.0006384070517430065 0 0)
(0.0006541310554249042 0 0)
(0.0006618358724540502 0 0)
(0.0006621443262816887 0 0)
(0.0006549287688454995 0 0)
(0.0006400554478379901 0 0)
(0.0006179917193013739 0 0)
(0.0005887367656240906 0 0)
(0.0005526183269160105 0 0)
(0.0005101733481798261 0 0)
(0.0004625564957320574 0 0)
(0.000411608389304213 0 0)
(0.0003594414389277432 0 0)
(0.0003069402503528895 0 0)
(0.0002546797858915311 0 0)
(0.0002027894457088163 0 0)
(0.0001513072710185751 0 0)
(0.0001011146547532772 0 0)
(5.266188696717038e-05 0 0)
(6.785138704217132e-06 0 0)
(-3.532694310465787e-05 0 0)
(-7.306834321095578e-05 0 0)
(-0.0001051698937310454 0 0)
(-0.0001311423472494312 0 0)
(-0.0001496825901219232 0 0)
(-0.0001615176491714581 0 0)
(-0.0001650851457066226 0 0)
(-0.0001607560825468844 0 0)
(-0.000148621823762117 0 0)
(-0.0001287958836700547 0 0)
(-0.0001014196164744982 0 0)
(-6.693098810676127e-05 0 0)
(-2.589020869253853e-05 0 0)
(2.041452138164966e-05 0 0)
(6.972592881716169e-05 0 0)
(0.0001201296219177922 0 0)
(0.0001704424533685885 0 0)
(0.000221285161791664 0 0)
(0.0002716450565159717 0 0)
(0.0003210524684969502 0 0)
(0.0003695110650103328 0 0)
(0.0004159003939041794 0 0)
(0.0004597281252540732 0 0)
(0.0005001583440913253 0 0)
(0.0005362614582438291 0 0)
(0.0005671846440060655 0 0)
(0.0005920776984376841 0 0)
(0.0006105434255072534 0 0)
(0.000621228016531578 0 0)
(0.0006244943536262484 0 0)
(0.0006201840682724209 0 0)
(0.0006079610010496341 0 0)
(0.0005881693683648602 0 0)
(0.0005608170495615276 0 0)
(0.0005264329761903234 0 0)
(0.0004852113543623892 0 0)
(0.0004387056133097669 0 0)
(0.0003884269187654818 0 0)
(0.0003370383639664673 0 0)
(0.0002845086162209004 0 0)
(0.0002332085817517459 0 0)
(0.0001814303334594048 0 0)
(0.000130235854980656 0 0)
(8.000336290315394e-05 0 0)
(3.134615620486877e-05 0 0)
(-1.521967530674891e-05 0 0)
(-5.852298482163873e-05 0 0)
(-9.786981725493828e-05 0 0)
(-0.0001321631458315712 0 0)
(-0.0001607753950916004 0 0)
(-0.000182496615096532 0 0)
(-0.0001973612293744787 0 0)
(-0.0002046072953742327 0 0)
(-0.0002036824618099577 0 0)
(-0.000194693367530479 0 0)
(-0.0001777547649833751 0 0)
(-0.0001528401923171788 0 0)
(-0.0001203346547833063 0 0)
(-8.097916059886647e-05 0 0)
(-3.593857131865463e-05 0 0)
(1.238431457113849e-05 0 0)
(6.206170935461396e-05 0 0)
(0.0001113862057477894 0 0)
(0.0001618496761641489 0 0)
(0.0002112880926336605 0 0)
(0.0002603293584085589 0 0)
(0.0003083233710236968 0 0)
(0.0003547419900127273 0 0)
(0.0003988213964931624 0 0)
(0.0004397889845134283 0 0)
(0.0004770547182637117 0 0)
(0.0005095105995286963 0 0)
(0.0005365464382571189 0 0)
(0.0005571681466500551 0 0)
(0.0005713093663673491 0 0)
(0.0005771587672601011 0 0)
(0.0005757940847732018 0 0)
(0.0005664627653687723 0 0)
(0.0005493095021924948 0 0)
(0.0005242680971724031 0 0)
(0.0004918178048644952 0 0)
(0.0004522134001913731 0 0)
(0.0004068658775638999 0 0)
(0.0003574715674955284 0 0)
(0.0003066581808682307 0 0)
(0.0002547154957587197 0 0)
(0.0002038199683272821 0 0)
(0.0001522745765121631 0 0)
(0.0001016166492544106 0 0)
(5.13355064575481e-05 0 0)
(2.69460874957836e-06 0 0)
(-4.429330038123148e-05 0 0)
(-8.850950801737234e-05 0 0)
(-0.0001290839424778951 0 0)
(-0.0001651754812534178 0 0)
(-0.0001958891923217648 0 0)
(-0.0002204868135043913 0 0)
(-0.0002378273328064425 0 0)
(-0.0002485636626893342 0 0)
(-0.0002509688707634488 0 0)
(-0.0002451251865500454 0 0)
(-0.0002311216443532234 0 0)
(-0.0002088600010202224 0 0)
(-0.0001786599797497725 0 0)
(-0.0001409669060885282 0 0)
(-9.733670471162321e-05 0 0)
(-4.978661253855605e-05 0 0)
(-8.047786521473757e-07 0 0)
(4.832825852518835e-05 0 0)
(9.76390018476814e-05 0 0)
(0.0001469380824020027 0 0)
(0.0001958493081133182 0 0)
(0.000243553707801885 0 0)
(0.0002901158550332818 0 0)
(0.0003345870518008125 0 0)
(0.0003761810526603269 0 0)
(0.0004145175013579967 0 0)
(0.0004484706553643207 0 0)
(0.0004775253958385875 0 0)
(0.0005004427241112757 0 0)
(0.000517499957135386 0 0)
(0.0005262736767013311 0 0)
(0.0005280077907512954 0 0)
(0.0005218893780994966 0 0)
(0.0005077765017528422 0 0)
(0.0004855012453720858 0 0)
(0.0004554580092480221 0 0)
(0.0004180033072817395 0 0)
(0.000374189106436134 0 0)
(0.0003260287872238446 0 0)
(0.0002758200188746742 0 0)
(0.0002251337868478546 0 0)
(0.0001737568969642492 0 0)
(0.0001235635890578558 0 0)
(7.331763290324379e-05 0 0)
(2.340769297258578e-05 0 0)
(-2.51351004691156e-05 0 0)
(-7.213831582177523e-05 0 0)
(-0.0001168201640589518 0 0)
(-0.0001583917233423187 0 0)
(-0.0001957761044285158 0 0)
(-0.0002282773759154759 0 0)
(-0.0002551583679978144 0 0)
(-0.0002750835669568626 0 0)
(-0.0002889012378921701 0 0)
(-0.0002946947766188836 0 0)
(-0.0002922180775311409 0 0)
(-0.0002816837398822779 0 0)
(-0.0002628134759626829 0 0)
(-0.0002358372498540885 0 0)
(-0.0002010510337994763 0 0)
(-0.0001600516004394643 0 0)
(-0.000114671737206805 0 0)
(-6.772593483864126e-05 0 0)
(-2.00195299952878e-05 0 0)
(2.659667332654308e-05 0 0)
(7.493525947684641e-05 0 0)
(0.0001218903201389229 0 0)
(0.0001682092170741028 0 0)
(0.0002132976586027439 0 0)
(0.0002568442776720968 0 0)
(0.0002977250998060227 0 0)
(0.0003355645798144159 0 0)
(0.0003696603570234345 0 0)
(0.0003992329151691407 0 0)
(0.0004233259788858916 0 0)
(0.000441684397666241 0 0)
(0.000452930622479655 0 0)
(0.0004566439322550155 0 0)
(0.000453077367441457 0 0)
(0.0004415694829847308 0 0)
(0.0004220213241917304 0 0)
(0.0003944902220840259 0 0)
(0.0003593367979868159 0 0)
(0.0003175603044320106 0 0)
(0.000270864910949618 0 0)
(0.0002216768815309986 0 0)
(0.0001720559134449375 0 0)
(0.0001211998699383935 0 0)
(7.219216105731241e-05 0 0)
(2.232874495950474e-05 0 0)
(-2.677351054017896e-05 0 0)
(-7.511553640023724e-05 0 0)
(-0.0001218729522100752 0 0)
(-0.0001667148153966737 0 0)
(-0.0002090078854087874 0 0)
(-0.000247456948972111 0 0)
(-0.0002815710346880584 0 0)
(-0.0003103049277863164 0 0)
(-0.0003331594876185761 0 0)
(-0.0003488695738905114 0 0)
(-0.0003583851351819465 0 0)
(-0.0003593262515311095 0 0)
(-0.0003522059512427945 0 0)
(-0.0003365201820750002 0 0)
(-0.0003126194414762017 0 0)
(-0.0002804821645572557 0 0)
(-0.000241422261677041 0 0)
(-0.000197479832056083 0 0)
(-0.0001513745156411278 0 0)
(-0.0001044365387706062 0 0)
(-5.829540729023149e-05 0 0)
(-1.092682270941e-05 0 0)
(3.541019896582198e-05 0 0)
(8.15494500433165e-05 0 0)
(0.0001262235540400851 0 0)
(0.0001697099384752001 0 0)
(0.0002108769110561422 0 0)
(0.0002491624677871905 0 0)
(0.0002839810514891442 0 0)
(0.0003147535323564175 0 0)
(0.0003405607138253763 0 0)
(0.0003605213696873285 0 0)
(0.0003747425242162009 0 0)
(0.0003806999510275803 0 0)
(0.0003797186157884313 0 0)
(0.0003710336911286883 0 0)
(0.0003542533248318484 0 0)
(0.0003292582395944632 0 0)
(0.0002962994748895482 0 0)
(0.0002563321785430172 0 0)
(0.0002107828448665026 0 0)
(0.0001622388734252999 0 0)
(0.0001127378272315488 0 0)
(6.283719326456111e-05 0 0)
(1.284365855042062e-05 0 0)
(-3.625947367207769e-05 0 0)
(-8.518455116417219e-05 0 0)
(-0.0001336265053193087 0 0)
(-0.0001807202827081516 0 0)
(-0.0002259403344714744 0 0)
(-0.0002690343177656906 0 0)
(-0.0003088759745451844 0 0)
(-0.0003445281360268122 0 0)
(-0.0003751797717165718 0 0)
(-0.0004004728285511009 0 0)
(-0.000418537547445638 0 0)
(-0.0004311546734343588 0 0)
(-0.0004353358007765092 0 0)
(-0.0004313192816565247 0 0)
(-0.0004188783535472577 0 0)
(-0.0003979508537337633 0 0)
(-0.000368627077193844 0 0)
(-0.0003317971771452158 0 0)
(-0.0002894098125164445 0 0)
(-0.0002442054900753795 0 0)
(-0.0001982023314679257 0 0)
(-0.0001519531242700472 0 0)
(-0.0001066662535206299 0 0)
(-5.987986625528887e-05 0 0)
(-1.433632976738183e-05 0 0)
(3.009848451887585e-05 0 0)
(7.332399831617959e-05 0 0)
(0.0001147524546596981 0 0)
(0.0001534812956030139 0 0)
(0.0001888153462502885 0 0)
(0.0002205712866471668 0 0)
(0.0002477676147812369 0 0)
(0.0002694692163963128 0 0)
(0.0002857019054858398 0 0)
(0.000294205178679352 0 0)
(0.0002955456651390324 0 0)
(0.000289636712044134 0 0)
(0.0002754762189998934 0 0)
(0.0002532649458953539 0 0)
(0.0002226662812059999 0 0)
(0.0001847078544628289 0 0)
(0.0001406426041320847 0 0)
(9.287981244742902e-05 0 0)
(4.355039442495187e-05 0 0)
(-5.605464446657079e-06 0 0)
(-5.629602180331344e-05 0 0)
(-0.0001044396199650846 0 0)
(-0.0001535887418202272 0 0)
(-0.0002019134294530191 0 0)
(-0.0002493597675804704 0 0)
(-0.0002949857002485297 0 0)
(-0.0003386680590151448 0 0)
(-0.0003796540945073673 0 0)
(-0.0004168617689867007 0 0)
(-0.0004492605274667652 0 0)
(-0.0004765424804168085 0 0)
(-0.0004974980251111497 0 0)
(-0.0005118810734764369 0 0)
(-0.0005196157475089521 0 0)
(-0.0005187844923005364 0 0)
(-0.0005096332806268446 0 0)
(-0.0004917732036004877 0 0)
(-0.0004654694013307644 0 0)
(-0.0004311818669751579 0 0)
(-0.0003905820987333793 0 0)
(-0.0003464771894250807 0 0)
(-0.0003012542237858072 0 0)
(-0.0002555431680049725 0 0)
(-0.0002110354753594658 0 0)
(-0.0001647203025718654 0 0)
(-0.0001199296610638362 0 0)
(-7.55437006564663e-05 0 0)
(-3.262066766010433e-05 0 0)
(8.794683123825242e-06 0 0)
(4.798369842158127e-05 0 0)
(8.387100129896835e-05 0 0)
(0.0001162561819890118 0 0)
(0.0001446711062668951 0 0)
(0.0001680730892963463 0 0)
(0.0001855847568565053 0 0)
(0.0001974151287698647 0 0)
(0.0002006097743009012 0 0)
(0.0001971136109013601 0 0)
(0.0001856498398944315 0 0)
(0.0001661292305132554 0 0)
(0.0001381852898353376 0 0)
(0.0001023869634714419 0 0)
(6.000842175326033e-05 0 0)
(1.321212053895948e-05 0 0)
(-3.567368164904156e-05 0 0)
(-8.477252710533554e-05 0 0)
(-0.0001345557000049953 0 0)
(-0.0001836449500563174 0 0)
(-0.000232300641928418 0 0)
(-0.0002803981374158318 0 0)
(-0.0003280581502733873 0 0)
(-0.0003741565747795259 0 0)
(-0.0004182707988602351 0 0)
(-0.0004601053517991213 0 0)
(-0.0004988161698540919 0 0)
(-0.0005329022864519936 0 0)
(-0.00056197238887606 0 0)
(-0.0005855753168538777 0 0)
(-0.0006018057427666871 0 0)
(-0.0006128154061672479 0 0)
(-0.0006151805042279773 0 0)
(-0.0006090943488973651 0 0)
(-0.0005945286564658106 0 0)
(-0.0005712032710667639 0 0)
(-0.0005397844761949489 0 0)
(-0.0005013041336790508 0 0)
(-0.0004585447015493373 0 0)
(-0.0004140069903306534 0 0)
(-0.000369263809027274 0 0)
(-0.0003244467175066525 0 0)
(-0.000280500261311678 0 0)
(-0.0002351582557564735 0 0)
(-0.0001912184725329874 0 0)
(-0.0001485220349838252 0 0)
(-0.0001072548196963267 0 0)
(-6.781347608768019e-05 0 0)
(-3.131353701057317e-05 0 0)
(1.620088659199522e-06 0 0)
(3.088242025697967e-05 0 0)
(5.588121809662593e-05 0 0)
(7.487104464621737e-05 0 0)
(8.890507210961761e-05 0 0)
(9.432999737677086e-05 0 0)
(9.311499996950575e-05 0 0)
(8.440694776841422e-05 0 0)
(6.746098606157641e-05 0 0)
(4.231085511387081e-05 0 0)
(8.865998057521185e-06 0 0)
(-3.163469608394912e-05 0 0)
(-7.719808197746476e-05 0 0)
(-0.0001254906744258709 0 0)
(-0.0001746054817681447 0 0)
(-0.0002234821725335164 0 0)
(-0.0002737361209830672 0 0)
(-0.0003212598316113224 0 0)
(-0.0003696244981942701 0 0)
(-0.0004172896107410502 0 0)
(-0.0004637767226261321 0 0)
(-0.0005084802024889646 0 0)
(-0.0005508565023974058 0 0)
(-0.0005908097236155072 0 0)
(-0.000626612188880166 0 0)
(-0.000657311224179531 0 0)
(-0.0006831059724004249 0 0)
(-0.0007020949610167767 0 0)
(-0.0007148911129576535 0 0)
(-0.0007207707062173617 0 0)
(-0.0007178477998921307 0 0)
(-0.0007066094578541841 0 0)
(-0.0006864618619949183 0 0)
(-0.0006579773790083421 0 0)
(-0.0006220288384656949 0 0)
(-0.0005807350142939243 0 0)
(-0.0005372323451980653 0 0)
(-0.0004931925336835847 0 0)
(-0.000448739359662835 0 0)
(-0.0004058513165181378 0 0)
(-0.0003607093907473896 0 0)
(-0.0003175428606531036 0 0)
(-0.0002748392102333715 0 0)
(-0.0002338076781508893 0 0)
(-0.0001943825422962801 0 0)
(-0.0001573004085122045 0 0)
(-0.000123760152811046 0 0)
(-9.385182079697811e-05 0 0)
(-6.76693582321171e-05 0 0)
(-4.696478411864293e-05 0 0)
(-3.182493195406455e-05 0 0)
(-2.280524596530126e-05 0 0)
(-2.24068423528896e-05 0 0)
(-2.875124338182227e-05 0 0)
(-4.304228294195819e-05 0 0)
(-6.555481484864397e-05 0 0)
(-9.626956331721336e-05 0 0)
(-0.0001348447351249065 0 0)
(-0.0001787913057716798 0 0)
(-0.000226733865736592 0 0)
(-0.0002753711360335318 0 0)
(-0.0003241757667352329 0 0)
(-0.0003736686312484393 0 0)
(-0.0004221702109460506 0 0)
(-0.000470137943945299 0 0)
(-0.0005175986523150728 0 0)
(-0.0005644118254399273 0 0)
(-0.0006096449591736416 0 0)
(-0.0006526160295313446 0 0)
(-0.0006933015548091508 0 0)
(-0.0007308696213250573 0 0)
(-0.0007632459969243181 0 0)
(-0.0007906700111283249 0 0)
(-0.0008127088579141797 0 0)
(-0.0008269054380051625 0 0)
(-0.0008363209036951946 0 0)
(-0.0008365795958257656 0 0)
(-0.0008284297578112829 0 0)
(-0.0008116188286833804 0 0)
(-0.0007861152326370278 0 0)
(-0.0007529217131332139 0 0)
(-0.0007134726667580004 0 0)
(-0.0006711543823837861 0 0)
(-0.0006276763334123161 0 0)
(-0.000584154111230868 0 0)
(-0.0005408615366883417 0 0)
(-0.0004982217711859996 0 0)
(-0.0004543798057635999 0 0)
(-0.0004120384325887142 0 0)
(-0.0003712155464220066 0 0)
(-0.0003318377951137344 0 0)
(-0.000294551791785304 0 0)
(-0.0002600440547238822 0 0)
(-0.0002299903479492409 0 0)
(-0.0002024448680311321 0 0)
(-0.0001801738663938532 0 0)
(-0.000163952230878917 0 0)
(-0.0001523658494557074 0 0)
(-0.0001499636213326468 0 0)
(-0.0001540351444276144 0 0)
(-0.0001655871548376395 0 0)
(-0.0001855333644260075 0 0)
(-0.0002135395129563989 0 0)
(-0.000249695326943492 0 0)
(-0.0002922818817878903 0 0)
(-0.0003387437737036576 0 0)
(-0.0003877072629102678 0 0)
(-0.0004363066591024471 0 0)
(-0.0004848054152887844 0 0)
(-0.0005346961803730122 0 0)
(-0.0005814620213343696 0 0)
(-0.000629287091547574 0 0)
(-0.0006761509093965943 0 0)
(-0.0007218476530473435 0 0)
(-0.0007655468162329862 0 0)
(-0.0008066574752169965 0 0)
(-0.0008458367749799641 0 0)
(-0.000879538546826138 0 0)
(-0.0009088593488221507 0 0)
(-0.0009332659670745098 0 0)
(-0.0009501653364978184 0 0)
(-0.0009613052137046422 0 0)
(-0.0009651562472350214 0 0)
(-0.0009601871830255592 0 0)
(-0.0009467088479151599 0 0)
(-0.0009244792297183006 0 0)
(-0.0008939427918632793 0 0)
(-0.0008570979813959249 0 0)
(-0.0008152914018337541 0 0)
(-0.0007736416389218326 0 0)
(-0.0007303696351236278 0 0)
(-0.0006872783176999558 0 0)
(-0.0006458677400221265 0 0)
(-0.0006021235061898039 0 0)
(-0.0005605319784707773 0 0)
(-0.000519606529708695 0 0)
(-0.0004804242528745432 0 0)
(-0.0004431005239813938 0 0)
(-0.0004079878222878502 0 0)
(-0.0003771479572495371 0 0)
(-0.0003491255686407332 0 0)
(-0.000325336017691428 0 0)
(-0.0003075724636794687 0 0)
(-0.0002949736624266099 0 0)
(-0.0002887651083040365 0 0)
(-0.0002913702116395667 0 0)
(-0.0003005784745108937 0 0)
(-0.0003178396144461107 0 0)
(-0.0003432861246351659 0 0)
(-0.0003767276026958656 0 0)
(-0.000417675494741186 0 0)
(-0.0004626759000595897 0 0)
(-0.0005115860040618541 0 0)
(-0.0005600152644504489 0 0)
(-0.000608288170353307 0 0)
(-0.0006575209528742881 0 0)
(-0.0007054397801867369 0 0)
(-0.0007527678455573005 0 0)
(-0.0007995118024303064 0 0)
(-0.0008456001304342686 0 0)
(-0.0008898962642525606 0 0)
(-0.0009318021993196572 0 0)
(-0.0009713348742695733 0 0)
(-0.001007695937886913 0 0)
(-0.001037899405794331 0 0)
(-0.001064505066434596 0 0)
(-0.00108446068262109 0 0)
(-0.001096842570001559 0 0)
(-0.00110443091880322 0 0)
(-0.00110263180710218 0 0)
(-0.001092249289253018 0 0)
(-0.001073375544752882 0 0)
(-0.001045846689444035 0 0)
(-0.001011358593191953 0 0)
(-0.0009713826799120684 0 0)
(-0.0009301786297655881 0 0)
(-0.0008881731087443669 0 0)
(-0.0008456588972002597 0 0)
(-0.0008037373879830475 0 0)
(-0.0007626809159934139 0 0)
(-0.0007201290748612891 0 0)
(-0.0006796363400374058 0 0)
(-0.0006406285892590161 0 0)
(-0.0006032871787883182 0 0)
(-0.0005680959532531385 0 0)
(-0.0005357555586638502 0 0)
(-0.0005084457550135613 0 0)
(-0.0004826094374540021 0 0)
(-0.0004636511073314442 0 0)
(-0.0004497219041425868 0 0)
(-0.0004409720844018729 0 0)
(-0.000441476298769152 0 0)
(-0.0004484720405969368 0 0)
(-0.0004630126538360972 0 0)
(-0.0004858685520135061 0 0)
(-0.0005167847041930242 0 0)
(-0.0005553105031957413 0 0)
(-0.0005994879067824765 0 0)
(-0.0006468047618895856 0 0)
(-0.0006958625749568256 0 0)
(-0.0007440552743139538 0 0)
(-0.0007922614980615541 0 0)
(-0.0008418270405187915 0 0)
(-0.0008877842921624727 0 0)
(-0.000935156688899307 0 0)
(-0.0009812721463736745 0 0)
(-0.001026115088736129 0 0)
(-0.001068906465747436 0 0)
(-0.001108697479030762 0 0)
(-0.001147090060222781 0 0)
(-0.001178646165253993 0 0)
(-0.001206842249154196 0 0)
(-0.0012294759770601 0 0)
(-0.001244731645989255 0 0)
(-0.001253784859327427 0 0)
(-0.001255789147161213 0 0)
(-0.001248628979055844 0 0)
(-0.001233081858212813 0 0)
(-0.001208848298628418 0 0)
(-0.00117676075167826 0 0)
(-0.001139260703122731 0 0)
(-0.001098067467688288 0 0)
(-0.001057348012347713 0 0)
(-0.001015862998390731 0 0)
(-0.0009738643854815411 0 0)
(-0.0009339488679106257 0 0)
(-0.000891651390696873 0 0)
(-0.0008517459693108731 0 0)
(-0.0008125310987481397 0 0)
(-0.0007753897847268388 0 0)
(-0.0007401278567413276 0 0)
(-0.0007071045740982606 0 0)
(-0.0006789578074860855 0 0)
(-0.0006527224693393306 0 0)
(-0.0006315812332131312 0 0)
(-0.0006171799456713448 0 0)
(-0.0006069472299116519 0 0)
(-0.0006035012562771587 0 0)
(-0.0006091642396310986 0 0)
(-0.0006212681193796986 0 0)
(-0.0006414395591744247 0 0)
(-0.0006698146985959323 0 0)
(-0.0007058290404800621 0 0)
(-0.0007485865426505285 0 0)
(-0.0007946735454920892 0 0)
(-0.0008434761326887474 0 0)
(-0.0008922753135367253 0 0)
(-0.0009399024343097435 0 0)
(-0.0009888896415542994 0 0)
(-0.001036402129822064 0 0)
(-0.001082977929504058 0 0)
(-0.001129135729503032 0 0)
(-0.001174478890596232 0 0)
(-0.001217923819265288 0 0)
(-0.001258606573732196 0 0)
(-0.001297301307221938 0 0)
(-0.001331669437495953 0 0)
(-0.001360616826981084 0 0)
(-0.001386088291880506 0 0)
(-0.001403890123592759 0 0)
(-0.001414428399436419 0 0)
(-0.001420168279209452 0 0)
(-0.001416270394867843 0 0)
(-0.001403760862082722 0 0)
(-0.001382888892357107 0 0)
(-0.001353779619348693 0 0)
(-0.001318234099562431 0 0)
(-0.001278651992396809 0 0)
(-0.001238132461547335 0 0)
(-0.001197860568064823 0 0)
(-0.001156318233631516 0 0)
(-0.001115938187423898 0 0)
(-0.001076427166782429 0 0)
(-0.001035189685725358 0 0)
(-0.0009965786114142531 0 0)
(-0.0009594947112381556 0 0)
(-0.0009242007747127844 0 0)
(-0.0008911583568362404 0 0)
(-0.0008611185010939135 0 0)
(-0.0008361024647162458 0 0)
(-0.0008129981541302156 0 0)
(-0.0007964478338299653 0 0)
(-0.0007855464215647738 0 0)
(-0.000779661341174816 0 0)
(-0.0007826635660186176 0 0)
(-0.0007928461571396393 0 0)
(-0.0008101941234169032 0 0)
(-0.0008360194618842167 0 0)
(-0.0008696302233081153 0 0)
(-0.0009102264998644878 0 0)
(-0.000955639147811023 0 0)
(-0.001003448684485409 0 0)
(-0.001052157900553906 0 0)
(-0.001100609075191787 0 0)
(-0.001148225242212766 0 0)
(-0.001197670368250267 0 0)
(-0.001242756944846005 0 0)
(-0.001289747122311382 0 0)
(-0.001335063236061476 0 0)
(-0.001379179439432953 0 0)
(-0.001420938232822012 0 0)
(-0.001459584639197868 0 0)
(-0.001496590799901241 0 0)
(-0.001527007814263744 0 0)
(-0.001553018820118287 0 0)
(-0.00157518412201187 0 0)
(-0.001587964435160301 0 0)
(-0.001594741575028839 0 0)
(-0.001595038838010393 0 0)
(-0.001585784701601281 0 0)
(-0.001568234850852925 0 0)
(-0.001542354823001551 0 0)
(-0.001509151988646502 0 0)
(-0.001471417837005028 0 0)
(-0.001431303912984097 0 0)
(-0.001391287718257607 0 0)
(-0.001351803858071917 0 0)
(-0.001310512202464542 0 0)
(-0.001272259233976354 0 0)
(-0.001231796351488459 0 0)
(-0.00119324569944767 0 0)
(-0.001156003816407022 0 0)
(-0.001120928692101145 0 0)
(-0.001087813751376706 0 0)
(-0.001056950986953318 0 0)
(-0.001031215695314525 0 0)
(-0.001007297448756793 0 0)
(-0.0009888859905579114 0 0)
(-0.0009773473176017506 0 0)
(-0.0009699713640300138 0 0)
(-0.0009689689706640967 0 0)
(-0.0009779217415316042 0 0)
(-0.0009929585063906214 0 0)
(-0.001015922056663719 0 0)
(-0.00104706124069648 0 0)
(-0.00108551994331307 0 0)
(-0.001129490063929507 0 0)
(-0.00117673777755455 0 0)
(-0.001224898315698855 0 0)
(-0.001273963084806522 0 0)
(-0.001321426736338889 0 0)
(-0.001369820099387106 0 0)
(-0.001417816901305952 0 0)
(-0.001462893963875679 0 0)
(-0.001508735957400929 0 0)
(-0.001553369028063219 0 0)
(-0.001595924791690669 0 0)
(-0.001635582877448848 0 0)
(-0.001672847959318625 0 0)
(-0.001705947654248516 0 0)
(-0.001733721389195369 0 0)
(-0.001756794444541328 0 0)
(-0.00177405959977136 0 0)
(-0.001782075849979339 0 0)
(-0.001785639288466196 0 0)
(-0.001780052963394842 0 0)
(-0.00176539189398811 0 0)
(-0.00174284963860853 0 0)
(-0.001712583691526085 0 0)
(-0.001676414826773536 0 0)
(-0.00163785469718027 0 0)
(-0.001597824947575888 0 0)
(-0.001558629485011042 0 0)
(-0.001519482272928661 0 0)
(-0.001479301817087561 0 0)
(-0.00144279699638841 0 0)
(-0.001401666510695911 0 0)
(-0.001365582893401375 0 0)
(-0.001330319130998447 0 0)
(-0.00129728124449754 0 0)
(-0.001266477657838264 0 0)
(-0.001238565076249819 0 0)
(-0.001215888452560511 0 0)
(-0.001195844457770637 0 0)
(-0.001181091645782797 0 0)
(-0.00117453952367506 0 0)
(-0.001170848795092814 0 0)
(-0.001175609407560447 0 0)
(-0.001189492119974063 0 0)
(-0.001209831241270476 0 0)
(-0.001238326485000906 0 0)
(-0.001274550430380063 0 0)
(-0.001316805719672569 0 0)
(-0.00136326334365696 0 0)
(-0.001410972249043444 0 0)
(-0.001459409897744409 0 0)
(-0.00150859224971271 0 0)
(-0.001555092976869454 0 0)
(-0.001604476961710492 0 0)
(-0.001649892304589014 0 0)
(-0.001695647949814059 0 0)
(-0.001740373302652642 0 0)
(-0.001783776154647317 0 0)
(-0.001824568590273369 0 0)
(-0.001862004465864897 0 0)
(-0.00189731570080855 0 0)
(-0.001926616783996068 0 0)
(-0.001951206231364639 0 0)
(-0.001971279120601368 0 0)
(-0.001983006553738537 0 0)
(-0.001986613631492344 0 0)
(-0.001985676038366296 0 0)
(-0.001974731523536438 0 0)
(-0.00195505103138828 0 0)
(-0.001927921004216096 0 0)
(-0.001894228222218282 0 0)
(-0.001856399304223033 0 0)
(-0.001818066604049304 0 0)
(-0.001778376718828014 0 0)
(-0.001740007239588892 0 0)
(-0.001701304823411662 0 0)
(-0.001662330601088388 0 0)
(-0.001626735104780674 0 0)
(-0.001586973689739139 0 0)
(-0.001552707939485208 0 0)
(-0.001519753778576422 0 0)
(-0.001488841602897902 0 0)
(-0.001460582899540749 0 0)
(-0.001436055262823172 0 0)
(-0.001415844833108828 0 0)
(-0.001400139488883873 0 0)
(-0.001389625003764256 0 0)
(-0.001387814883723725 0 0)
(-0.001388407377377064 0 0)
(-0.001399423433352385 0 0)
(-0.001418169605544303 0 0)
(-0.00144362082132148 0 0)
(-0.001477424668280284 0 0)
(-0.001518020240128358 0 0)
(-0.001562846740944949 0 0)
(-0.001610928025851882 0 0)
(-0.001658395353297824 0 0)
(-0.001706785556242921 0 0)
(-0.001756085251569719 0 0)
(-0.001802142561776377 0 0)
(-0.001852492753138292 0 0)
(-0.001894005496255351 0 0)
(-0.001941194518055602 0 0)
(-0.001984480240056222 0 0)
(-0.002026210498709416 0 0)
(-0.002065286946755009 0 0)
(-0.002100143232795869 0 0)
(-0.002132676648902823 0 0)
(-0.002159146813389653 0 0)
(-0.00217982507996696 0 0)
(-0.002196546070063809 0 0)
(-0.002202611707647154 0 0)
(-0.002201720796147442 0 0)
(-0.002195661728903003 0 0)
(-0.002179691825698384 0 0)
(-0.002155319800374941 0 0)
(-0.002124377142158713 0 0)
(-0.002088431860619738 0 0)
(-0.002050316803632195 0 0)
(-0.002012521947583578 0 0)
(-0.001973387256977966 0 0)
(-0.0019355008396647 0 0)
(-0.001898285188863286 0 0)
(-0.00185949073288227 0 0)
(-0.001825625595127152 0 0)
(-0.001786641395518028 0 0)
(-0.00175579883789864 0 0)
(-0.001724625584778256 0 0)
(-0.00169661264541631 0 0)
(-0.001670457678133761 0 0)
(-0.001649663299938882 0 0)
(-0.001632471694903858 0 0)
(-0.001621184537470991 0 0)
(-0.001615017928533829 0 0)
(-0.001617768699733753 0 0)
(-0.001623224880380673 0 0)
(-0.001640668621879254 0 0)
(-0.001664283168872125 0 0)
(-0.00169471912241155 0 0)
(-0.001733388432956099 0 0)
(-0.001777069121782457 0 0)
(-0.001823749593477539 0 0)
(-0.001872365514412635 0 0)
(-0.001919966117596863 0 0)
(-0.00196766293337702 0 0)
(-0.002016971374351682 0 0)
(-0.002062908787301758 0 0)
(-0.002113163733301508 0 0)
(-0.00215069951943261 0 0)
(-0.002200955674108389 0 0)
(-0.002241952591624306 0 0)
(-0.002282391205992962 0 0)
(-0.002316784913950044 0 0)
(-0.002351416901352788 0 0)
(-0.002379021676841506 0 0)
(-0.002403463245334338 0 0)
(-0.00241996273339909 0 0)
(-0.002432939963111003 0 0)
(-0.002431191810621563 0 0)
(-0.002427908661740392 0 0)
(-0.002415002567919505 0 0)
)
;

boundaryField
{
    inlet
    {
        type            calculated;
        value           uniform (0.0007266054930120494 0 0);
    }
    outlet
    {
        type            calculated;
        value           uniform (-0.002405225697502067 0 0);
    }
    frontAndBack
    {
        type            empty;
    }
}


// ************************************************************************* //
