/*--------------------------------*- C++ -*----------------------------------*\
| =========                 |                                                 |
| \\      /  F ield         | OpenFOAM: The Open Source CFD Toolbox           |
|  \\    /   O peration     | Version:  v2012                                 |
|   \\  /    A nd           | Website:  www.openfoam.com                      |
|    \\/     M anipulation  |                                                 |
\*---------------------------------------------------------------------------*/
FoamFile
{
    version     2.0;
    format      ascii;
    class       volScalarField;
    location    "0.004";
    object      p;
}
// * * * * * * * * * * * * * * * * * * * * * * * * * * * * * * * * * * * * * //

dimensions      [1 -1 -2 0 0 0 0];


internalField   nonuniform List<scalar> 
1000
(
101311.5859975577
101314.2249717118
101307.4538616005
101302.1379865095
101296.2459172111
101290.9210389962
101286.3157452765
101282.3712231093
101278.9501232222
101276.576136791
101275.8845151444
101275.8748105978
101276.1863016311
101277.0905335632
101278.9467271277
101281.849194737
101285.6949367246
101290.2974783179
101295.5006838644
101301.2004993525
101307.3150687783
101313.7570921085
101320.4235561052
101327.1930167532
101333.927318737
101340.484480899
101346.7438166614
101352.6371759809
101358.1716930371
101363.3891021658
101368.1421231526
101371.7006534663
101373.2156601083
101373.3980252904
101373.3314748212
101373.118445648
101372.4652171087
101371.1405425429
101368.9046744834
101365.6275833598
101361.3261249966
101356.1543678493
101350.3339193186
101344.0739942384
101337.5311960499
101330.8177513743
101324.0300326312
101317.2695264232
101310.6444886364
101304.2451261821
101298.0991790674
101292.1636083222
101286.4610540288
101281.443378325
101278.1927469815
101277.1641409607
101277.0987623995
101277.1262857082
101277.3529974434
101277.9123886849
101279.0378463438
101280.9387477953
101283.7840004741
101287.6500973618
101292.4959185452
101298.1684776151
101304.4441079924
101311.0883406721
101317.9036270268
101324.7438819458
101331.5053401194
101338.1225870469
101344.581387073
101350.9223234909
101357.1863521891
101363.2390110407
101368.4320731688
101371.5873018961
101372.4978119398
101372.5564502689
101372.5006502772
101372.3275959535
101371.8513484269
101370.905742769
101369.2928600965
101366.8347274728
101363.4053078735
101358.9668771708
101353.587529473
101347.4325295941
101340.7325319381
101333.7378729093
101326.6698734221
101319.6822651151
101312.8438625601
101306.1436986645
101299.5176559977
101292.9280802325
101286.5903941786
101281.3569757723
101278.4790061228
101277.7948792687
101277.7751404086
101277.8052910336
101277.9890597179
101278.4294896488
101279.2980185435
101280.7673897408
101283.0060101976
101286.1471283766
101290.2606906461
101295.3286799203
101301.2357127725
101307.7843199217
101314.732708134
101321.8424037791
101328.9244510805
101335.877074787
101342.7019358581
101349.474817292
101356.2369282943
101362.7531258313
101368.1527545373
101371.1700420994
101371.9311985058
101371.9718672421
101371.9279733887
101371.7899346458
101371.4170612402
101370.6775421984
101369.4086895713
101367.4469151455
101364.6459579815
101360.9045737925
101356.1912522148
101350.5605924951
101344.156611111
101337.1959992792
101329.9259820463
101322.5650743941
101315.2505858938
101308.0179527612
101300.8303091293
101293.6936412017
101286.9372690803
101281.5885871938
101278.8730416792
101278.299268297
101278.2868877671
101278.3130863664
101278.4630643772
101278.8208735018
101279.5246983869
101280.7197882409
101282.557719225
101285.1770269268
101288.6829876665
101293.1241016006
101298.472605023
101304.6184449692
101311.3815626454
101318.5417835605
101325.8842711423
101333.2527968942
101340.5870356207
101347.9059209555
101355.1933961271
101362.131663685
101367.7395457194
101370.7488284392
101371.4709557554
101371.5082908472
101371.4737849552
101371.3645250795
101371.0661432102
101370.4701754419
101369.439014477
101367.8271126476
101365.4916993609
101362.3124081359
101358.2116310117
101353.1732261501
101347.2566288159
101340.5986655288
101333.39278885
101325.8449765794
101318.121927771
101310.317281675
101302.4676264602
101294.6731517876
101287.4066419514
101281.8624075289
101279.2215848652
101278.7099820168
101278.7004230731
101278.7224652477
101278.8467883652
101279.1431544915
101279.7269376632
101280.7224549822
101282.2646380703
101284.4859118939
101287.501878856
101291.392443248
101296.1829831382
101301.8325336805
101308.2334663667
101315.2247535494
101322.6221879649
101330.2640317648
101338.0517161716
101345.9435659899
101353.8450364419
101361.3285669307
101367.2733952186
101370.3713217356
101371.0900129385
101371.1270171825
101371.0994672329
101371.0119031194
101370.7687743177
101370.2792228893
101369.4253199166
101368.0782893432
101366.1047950572
101363.3809659628
101359.8079293232
101355.32795489
101349.9399240099
101343.7082499554
101336.7554988127
101329.2349390563
101321.292191649
101313.0363320436
101304.5551121015
101296.0434233768
101288.1377296885
101282.2389780404
101279.5474270786
101279.0543186661
101279.0447030424
101279.0629605432
101279.1670576742
101279.4160885768
101279.9082446172
101280.7510046615
101282.064136024
101283.9705941443
101286.5863924711
101290.0059814828
101294.2862982616
101299.4345578397
101305.4030008566
101312.0927514477
101319.3716033618
101327.1073957649
101335.2011805656
101343.5804016042
101352.0896446238
101360.1996267067
101366.6385214607
101369.9822564733
101370.7608773578
101370.8032981077
101370.7815595142
101370.7115574668
101370.5116484944
101370.1045748059
101369.3881796142
101368.248594655
101366.5636336262
101364.2127525104
101361.0884507527
101357.1090565475
101352.2325449683
101346.467036402
101339.8699539573
101332.5321608866
101324.5532750674
101316.0238675616
101307.0476529059
101297.8793142033
101289.280038629
101282.8437251444
101279.9035775331
101279.357789379
101279.3431713479
101279.3572563241
101279.4435355622
101279.6530609417
101280.0711888363
101280.791915345
101281.9218251052
101283.5736557008
101285.8592259028
101288.878337545
101292.70606528
101297.382092803
101302.9040808491
101309.2267512158
101316.271527224
101323.9492928114
101332.1836175872
101340.8992554048
101349.9141619878
101358.6460297209
101365.7176408534
101369.5165451869
101370.4579015124
101370.5176322937
101370.5010805962
101370.4466974431
101370.2830211712
101369.9434393975
101369.3381993165
101368.3661121661
101366.9159633699
101364.8735300013
101362.1295842117
101358.5894871707
101354.1845207123
101348.881614507
101342.6852521142
101335.6290666389
101327.7619296292
101319.1403111123
101309.8563111179
101300.1772688116
101290.9089584135
101283.7675070435
101280.3380249792
101279.6409006329
101279.6129304388
101279.622560948
101279.6921494811
101279.8664299444
101280.221308649
101280.8400786038
101281.8183853003
101283.2593861197
101285.2688746067
101287.9469613951
101291.3783897275
101295.6240051479
101300.7142817858
101306.6461569186
101313.3876828774
101320.8929207992
101329.1165803525
101337.9989090316
101347.3647022314
101356.6418837587
101364.4329594616
101368.9095707057
101370.1565054042
101370.2563911429
101370.2445222789
101370.2044158015
101370.0724274338
101369.790564602
101369.278674327
101368.4460495696
101367.1913308594
101365.407476215
101362.9871050757
101359.8294363541
101355.8491712412
101350.9846020794
101345.200355419
101338.4836623034
101330.8380085516
101322.2823709676
101312.8806902389
101302.8728230115
101293.0259245416
101285.0725963167
101280.9066885762
101279.922761266
101279.8648055728
101279.8701944948
101279.9243103631
101280.0662913706
101280.365166234
101280.8956371903
101281.7445057031
101283.0065885034
101284.7813509551
101287.1666966419
101290.2518494905
101294.1108758803
101298.7969030593
101304.3380832001
101310.7394244591
101317.9922874058
101326.0826972473
101334.9751620085
101344.5245094991
101354.2213417646
101362.7421825362
101368.0888924163
101369.8265506592
101370.0102565266
101370.00319526
101369.9759373047
101369.8718514666
101369.6405257222
101369.2091798704
101368.4957076536
101367.4072197509
101365.8436409222
101363.701086733
101360.8767950339
101357.2759222735
101352.8178659998
101347.4389457128
101341.0915296864
101333.7425115265
101325.376218251
101316.0216197167
101305.8670034842
101295.5805500102
101286.7990694579
101281.6811902224
101280.228069574
101280.1056332442
101280.1069675238
101280.1473634368
101280.2598939182
101280.50846483
101280.9607531071
101281.6964399655
101282.803313323
101284.3749091479
101286.5058571801
101289.286809587
101292.7996358
101297.1124057894
101302.2752617376
101308.320855365
101315.2702667384
101323.136989548
101331.9117760693
101341.4905138123
101351.4566712323
101360.6376638591
101366.9773120496
101369.4245421784
101369.7704117939
101369.77230795
101369.7557603846
101369.6758947361
101369.4890745778
101369.1282452791
101368.5184400232
101367.5739386905
101366.2010078376
101364.2998883249
101361.7683213534
101358.5066638728
101354.4225426612
101349.4331343205
101343.4660007307
101336.4603308862
101328.3712060904
101319.1926702827
101309.0529740516
101298.4912293211
101288.9575079814
101282.7433450325
101280.5953520221
101280.3407929631
101280.3369773204
101280.3656412374
101280.4518846695
101280.6553445283
101281.0377035566
101281.6729001119
101282.6428149228
101284.0356745263
101285.9425252543
101288.4537174186
101291.6553194393
101295.6247778964
101300.4271431466
101306.1149667278
101312.7318215411
101320.3134490146
101328.8748600192
101338.3545702729
101348.4376191456
101358.1471765338
101365.5069501492
101368.8868115695
101369.526047876
101369.5492228463
101369.5405994739
101369.4813997722
101369.3335562087
101369.0347468942
101368.5161185078
101367.6980177604
101366.4923635459
101364.8036627184
101362.5316057094
101359.574849324
101355.8342331428
101351.214614929
101345.6267003636
101338.9896158896
101331.2351519786
101322.3263442707
101312.3336640537
101301.6624358112
101291.5229854201
101284.169686879
101281.0833554585
101280.577789649
101280.5627086423
101280.581494741
101280.6448371401
101280.8083251648
101281.1280983718
101281.6734126939
101282.5211050279
101283.7547337098
101285.4618751612
101287.7316912006
101290.6522130791
101294.3067149152
101298.77056591
101304.1109717286
101310.3889286034
101317.6587763612
101325.9576059449
101335.2622180403
101345.3459676094
101355.4163884502
101363.6594869402
101368.0438799494
101369.1031713849
101369.1691334153
101369.1642146849
101369.1154758523
101368.9846377761
101368.7076786005
101368.214317486
101367.4221203225
101366.2393478639
101364.5666177972
101362.3003349707
101359.338259742
101355.5889512321
101350.9899820458
101345.549872072
101339.4530994962
101333.2891209957
101328.2850352489
101325.678399594
101325.0493650565
101325.0008191611
101325.0000020587
101325.0000000002
101324.9999999997
101324.9999999998
101324.9999999996
101324.9999999997
101324.9999999996
101324.9999999995
101324.9999999995
101324.9999999996
101324.9999999995
101325.0000000002
101325.0000000001
101325
101325.0000000002
101325.0000000003
101325.0000000003
101325.0000000003
101325.0000000004
101325.0000000003
101325.0000000004
101325.0000000002
101325.0000000002
101325.0000000002
101325
101324.9999999998
101324.9999999998
101324.9999999996
101324.9999999998
101324.9999999998
101324.9999999997
101324.9999999996
101324.9999999997
101324.9999999998
101324.9999999999
101325
101325
101324.9999999999
101324.9999999998
101324.9999999998
101324.9999999999
101324.9999999998
101325
101325.0000000002
101325.0000000003
101324.9999999998
101325.0000000003
101325.0000000001
101325
101324.9999999999
101325.0000000001
101324.9999999999
101324.9999999998
101324.9999999997
101324.9999999999
101324.9999999998
101324.9999999999
101324.9999999998
101324.9999999997
101325
101324.9999999996
101324.9999999999
101324.9999999996
101324.9999999999
101324.9999999996
101324.9999999998
101324.9999999997
101324.9999999996
101324.9999999998
101324.9999999997
101324.9999999998
101325
101325
101324.9999999998
101325
101324.9999999995
101325.0000000001
101324.9999999996
101325.0000000002
101325
101325.0000000002
101325
101325.0000000002
101325.0000000002
101325.0000000003
101324.9999999999
101325.0000000003
101324.9999999997
101324.9999999997
101324.9999999995
101324.9999999994
101324.9999999996
101324.999999999
101324.9999999995
101324.9999999993
101324.9999999998
101324.9999999999
101325
101325.0000000002
101325.0000000003
101325.0000000005
101325.0000000001
101325.0000000004
101325.0000000004
101325.0000000003
101325.0000000004
101325.0000000002
101325.0000000003
101325.0000000003
101325.0000000005
101325.0000000004
101325.0000000002
101325.0000000004
101324.9999999998
101324.9999999996
101324.9999999996
101324.9999999994
101324.9999999997
101324.9999999995
101324.9999999997
101324.9999999996
101324.9999999997
101324.9999999994
101324.9999999994
101324.9999999994
101324.9999999995
101324.9999999995
101324.9999999996
101324.9999999994
101325
101324.9999999995
101325.0000000001
101325.0000000001
101325
101325.0000000001
101324.9999999998
101324.9999999999
101324.9999999998
101325
101324.9999999999
101325
101325
101324.9999999998
101324.9999999998
101324.9999999999
101324.9999999998
101324.9999999998
101324.9999999994
101324.9999999998
101324.9999999995
101324.9999999995
101324.9999999995
101324.9999999996
101324.9999999994
101324.9999999997
101324.9999999996
101324.9999999996
101324.9999999995
101324.9999999995
101324.9999999998
101324.9999999994
101324.9999999998
101324.9999999998
101325
101324.9999999998
101325
101325.0000000001
101325.0000000002
101324.9999999999
101325.0000000004
101325.0000000001
101325.0000000001
101324.9999999999
101325.0000000002
101325.0000000001
101324.9999999997
101324.9999999998
101324.9999999997
101324.9999999998
101324.9999999999
101324.9999999997
101324.9999999998
101324.9999999997
101324.9999999996
101324.9999999994
101324.9999999998
101324.9999999995
101324.9999999996
101324.9999999998
101324.9999999996
101324.9999999996
101324.9999999995
101324.9999999993
101324.9999999999
101324.9999999999
101324.9999999998
101324.9999999999
101324.9999999999
101325.0000000001
101324.9999999999
101325
101325
101324.9999999999
101325.0000000001
101325.0000000001
101325.0000000001
101325.0000000001
101324.9999999997
101324.9999999998
101324.9999999996
101324.9999999998
101324.9999999991
101324.9999999992
101324.9999999991
101324.9999999991
101324.9999999991
101324.999999999
101324.9999999992
101324.9999999993
101324.9999999994
101324.9999999994
101324.9999999994
101324.9999999997
101324.9999999998
101325.0000000002
101324.9999999998
101325
101324.9999999999
101325.0000000002
101325.0000000003
101325.0000000002
101325.0000000006
101325.0000000007
101325.0000000006
101325.0000000005
101325.0000000005
101325.0000000003
101325.0000000004
101325.0000000005
101325.0000000003
101325.0000000004
101325.0000000004
101325.0000000002
101325.0000000001
101325.0000000002
101325
101324.9999999999
101324.9999999999
101324.9999999998
101324.9999999998
101324.9999999997
101324.9999999997
101324.9999999996
101324.9999999998
101324.9999999999
101324.9999999998
101325.0000000001
101324.9999999999
101324.9999999999
101324.9999999999
101324.9999999998
101324.9999999997
101325
101325
101324.9999999999
101325.0000000003
101325
101325.0000000003
101325
101324.9999999999
101325.0000000001
101324.9999999999
101324.9999999997
101324.9999999998
101324.9999999996
101324.9999999994
101324.9999999998
101324.9999999997
101324.9999999997
101324.9999999997
101325
101324.9999999999
101324.9999999999
101325.0000000001
101324.9999999997
101324.9999999998
101325.0000000001
101324.9999999998
101324.9999999998
101325
101325.0000000001
101325
101324.9999999998
101324.9999999999
101325.0000000001
101324.9999999998
101325.0000000001
101324.9999999998
101325
101325.0000000001
101324.9999999998
101324.9999999999
101324.9999999999
101324.9999999998
101325.0000000002
101325
101324.9999999999
101324.9999999999
101325.0000000001
101324.9999999997
101325
101324.9999999994
101325.0000000001
101324.9999999999
101325.0000000001
101324.9999999998
101324.9999999999
101324.9999999999
101324.9999999996
101325
101324.9999999998
101324.9999999998
101324.9999999996
101324.9999999996
101324.9999999998
101324.9999999998
101325
101324.9999999998
101324.9999999998
101324.9999999998
101324.9999999997
101324.9999999998
101324.9999999991
101324.9999999994
101324.9999999992
101324.9999999993
101324.9999999992
101324.9999999995
101324.9999999996
101324.9999999997
101324.9999999998
101324.9999999999
101324.9999999999
101324.9999999998
101324.9999999998
101324.9999999998
101324.9999999996
101324.9999999998
101324.9999999998
101324.9999999999
101324.9999999999
101324.9999999999
101324.9999999998
101324.9999999999
101324.9999999999
101325
101324.9999999999
101324.9999999998
101324.9999999999
101325
101324.9999999998
101324.9999999998
101324.9999999998
101324.9999999998
101324.9999999998
101324.9999999998
101324.9999999998
101324.9999999996
101324.9999999998
101324.9999999997
101324.9999999994
101324.9999999997
101324.9999999994
101324.9999999998
101324.9999999998
101324.9999999996
101324.9999999998
101324.9999999998
101324.9999999998
101324.9999999995
101324.9999999998
101324.9999999995
101324.9999999997
101324.9999999999
101324.9999999999
101324.9999999997
101324.9999999998
101324.9999999999
101324.9999999998
101324.9999999998
101324.9999999998
101324.9999999998
101325
101324.9999999998
101324.9999999997
101324.9999999998
101324.9999999996
101324.9999999994
101324.9999999991
101324.9999999994
101324.9999999989
101324.9999999991
101324.9999999991
101324.9999999991
101324.9999999987
101324.9999999991
101324.9999999991
101324.9999999991
101324.9999999993
101324.9999999989
101324.9999999991
101324.9999999991
101324.9999999993
101324.9999999989
101324.9999999991
101324.9999999991
101324.9999999991
101324.9999999993
101324.9999999991
101324.9999999996
101324.9999999993
101324.999999999
101324.9999999992
101324.999999999
101324.999999999
101324.9999999989
101324.9999999991
101324.9999999989
101324.9999999991
101324.999999999
101324.9999999991
101324.9999999993
101324.9999999996
101324.9999999992
101324.9999999998
101324.9999999997
101324.9999999998
101324.9999999998
101324.9999999997
101324.9999999998
)
;

boundaryField
{
    inlet
    {
        type            uniformFixedValue;
        uniformValue    sine;
        uniformValueCoeffs
        {
            frequency       constant 3000;
            scale           constant 50;
            level           constant 101325;
        }
        value           uniform 101325;
    }
    outlet
    {
        type            characteristicVelocityInletOutletPressure;
        UName           U;
        pName           p;
        TName           T;
        phiName         phi;
        rhoName         rho;
        U               (0 0 0);
        p               101325;
        T               300;
        value           uniform 101324.9999999998;
    }
    frontAndBack
    {
        type            empty;
    }
}


// ************************************************************************* //
