/*--------------------------------*- C++ -*----------------------------------*\
| =========                 |                                                 |
| \\      /  F ield         | OpenFOAM: The Open Source CFD Toolbox           |
|  \\    /   O peration     | Version:  v2012                                 |
|   \\  /    A nd           | Website:  www.openfoam.com                      |
|    \\/     M anipulation  |                                                 |
\*---------------------------------------------------------------------------*/
FoamFile
{
    version     2.0;
    format      ascii;
    class       volScalarField;
    location    "0.004";
    object      pMean;
}
// * * * * * * * * * * * * * * * * * * * * * * * * * * * * * * * * * * * * * //

dimensions      [1 -1 -2 0 0 0 0];


internalField   nonuniform List<scalar> 
1000
(
101325.0324810107
101325.010187571
101325.0436591206
101325.0751001942
101325.1216640701
101325.1776924931
101325.24202257
101325.3156014172
101325.3949798269
101325.4807006527
101325.5686474083
101325.6572837464
101325.7452036316
101325.8324607282
101325.9168340913
101325.9973147213
101326.0714081393
101326.1382862446
101326.1960463353
101326.2443529457
101326.281733471
101326.3081285765
101326.3224285016
101326.3249320506
101326.3150077691
101326.2933890379
101326.2599552013
101326.2158436047
101326.1612244798
101326.0971588976
101326.0237359759
101325.9427815919
101325.8569462601
101325.7700442011
101325.6829299676
101325.5961924574
101325.5101894598
101325.4259741432
101325.3449281141
101325.2688301725
101325.1995092845
101325.1386822718
101325.0877043905
101325.0475686638
101325.0189215102
101325.0021844622
101324.9975915172
101325.0051994013
101325.0248611327
101325.0562291647
101325.0988771791
101325.1524162171
101325.2165120627
101325.2904338326
101325.3720494758
101325.4575056061
101325.5437462044
101325.629966045
101325.7158700729
101325.8011943295
101325.8848770236
101325.9659892726
101326.0427205398
101326.1135685563
101326.1764713489
101326.2300643247
101326.2728065762
101326.3040715084
101326.3231141374
101326.3300043962
101326.3245436015
101326.3071735134
101326.2779142528
101326.2372589105
101326.1851357033
101326.1219730217
101326.0483375246
101325.9670394282
101325.8820583898
101325.796562457
101325.7109999902
101325.6256951528
101325.5409600234
101325.4574962501
101325.3763150677
101325.2987765572
101325.2265060375
101325.1612857275
101325.104868178
101325.0588063803
101325.0242846149
101325.0020651759
101324.9924778178
101324.9955339362
101325.0110162748
101325.0386707753
101325.0783047763
101325.1298784373
101325.1932140317
101325.2672224367
101325.3487333178
101325.4333082219
101325.5183305454
101325.6033319664
101325.6880691197
101325.7723408037
101325.8553446585
101325.9363587869
101326.0139582319
101326.0868386081
101326.1531162294
101326.2112542903
101326.2594442012
101326.2965416911
101326.3214121186
101326.3337431628
101326.333227812
101326.32019783
101326.2946860035
101326.2570340241
101326.2070873229
101326.1451751455
101326.0721804747
101325.9914676053
101325.9074154492
101325.82295256
101325.7384403027
101325.6541353757
101325.5702718808
101325.4874103924
101325.4063313932
101325.3281496645
101325.2542182791
101325.1861542159
101325.1256584295
101325.074453625
101325.034043263
101325.0056449071
101324.9900210837
101324.9875585116
101324.9982730501
101325.0220668562
101325.0588200453
101325.1085243474
101325.1708796814
101325.2444241264
101325.3253898812
101325.4091334794
101325.4932291677
101325.577311682
101325.6611738125
101325.7446596256
101325.827115171
101325.9079572747
101325.9860060176
101326.0601470202
101326.1287172947
101326.1902425163
101326.2429028676
101326.2853221498
101326.3160604451
101326.3343675902
101326.3395649169
101326.3316258284
101326.3103920002
101326.2760566197
101326.2284708216
101326.1680364777
101326.095949606
101326.0159677692
101325.9327284843
101325.8490912549
101325.7654071569
101325.6818932364
101325.5987261393
101325.5163692389
101325.4354517646
101325.3569076385
101325.2818809898
101325.2118014186
101325.1482315258
101325.092870114
101325.0473263104
101325.0130833476
101324.9912795353
101324.9827449796
101324.9879190603
101325.0070551613
101325.0402592832
101325.0876128301
101325.1486880491
101325.2216113518
101325.3020347782
101325.3850805747
101325.468428585
101325.5517697938
101325.6349243404
101325.7177700964
101325.799759235
101325.8804094337
101325.9587206651
101326.0337352698
101326.1039875287
101326.1681195798
101326.2243950703
101326.2713693604
101326.3074494274
101326.3315682192
101326.3426925236
101326.3403763413
101326.3241233761
101326.2938362723
101326.2492368496
101326.1907191713
101326.1197475743
101326.0404989272
101325.9579501472
101325.8749942261
101325.7919924533
101325.70913184
101325.6265493732
101325.5446334023
101325.4639031532
101325.3851510586
101325.3093546311
101325.237773115
101325.171817498
101325.1130933492
101325.0632071894
101325.0237600091
101324.9961362046
101324.9815253972
101324.9807919827
101324.9946228255
101325.0234975333
101325.0677427985
101325.1269525472
101325.1989297121
101325.278749902
101325.3611895777
101325.4439168007
101325.526640438
101325.6092061761
101325.6915147505
101325.7731002321
101325.8535553727
101325.932023102
101326.0076717997
101326.0792093845
101326.1453996108
101326.2046255949
101326.2554517684
101326.2962358618
101326.3257129469
101326.3425862887
101326.3460334539
101326.3351960368
101326.3096029377
101326.2687185743
101326.2127838651
101326.1433782432
101326.0650161659
101325.9831071586
101325.9007322037
101325.8183107136
101325.7360060027
101325.6539266759
101325.5724006272
101325.4918648078
101325.4129980571
101325.3366437198
101325.2639104179
101325.1960668978
101325.1346002771
101325.0810615692
101325.0370791721
101325.004178863
101324.9838012958
101324.9771660336
101324.9853697091
101325.0093094537
101325.0496574618
101325.1061990306
101325.1766381735
101325.255633995
101325.3374952531
101325.4196838824
101325.501872178
101325.5839299489
101325.6657725604
101325.7470026886
101325.8272688895
101325.905829459
101325.9819541211
101326.0545013545
101326.1223485946
101326.1840068724
101326.2380887229
101326.282965678
101326.3172613118
101326.3395051807
101326.3485794337
101326.3433064829
101326.3228431802
101326.2863417217
101326.2337655072
101326.1665856899
101326.089434808
101326.0081899127
101325.9263332883
101325.8444237483
101325.7626092835
101325.680976032
101325.5998017681
101325.5194602311
101325.4405366351
101325.3637674593
101325.2901305204
101325.2207676559
101325.157043334
101325.1004296732
101325.0525288989
101325.014933608
101324.9892418769
101324.9769365415
101324.9794470476
101324.9980522712
101325.0337947463
101325.0867907312
101325.1549356067
101325.232755503
101325.3140089401
101325.3957079655
101325.4774119196
101325.5590119666
101325.6404350834
101325.7213414824
101325.8014236384
101325.8800348155
101325.9565269139
101326.0298859469
101326.0990911694
101326.1627772909
101326.2196228407
101326.2680477041
101326.3066253064
101326.3337846834
101326.3481966904
101326.3484367861
101326.3333436292
101326.3017615005
101326.2533018348
101326.1891087633
101326.113633471
101326.033154872
101325.9517843535
101325.8703418434
101325.7889758174
101325.7077519664
101325.6269052233
101325.546758836
101325.4678198058
101325.3907379648
101325.3163794553
101325.2457754331
101325.1801736444
101325.1209592816
101325.0696790191
101325.0279407622
101324.9974252906
101324.9797907524
101324.9767076761
101324.9897629268
101325.0203420727
101325.0689732078
101325.1340052543
101325.2101794333
101325.2907301537
101325.3719638589
101325.4532152587
101325.5343874428
101325.6154181462
101325.6960173544
101325.7759149645
101325.8545425335
101325.9313208203
101326.0053432886
101326.0756789978
101326.1410755143
101326.2002838579
101326.2517895013
101326.2941579027
101326.3257724719
101326.3451677025
101326.350746807
101326.3411028542
101326.3148122236
101326.2711166052
101326.2106777727
101326.1374590128
101326.0579453607
101325.9770590887
101325.8960541928
101325.8151103703
101325.7342739694
101325.6537427919
101325.5737974239
101325.4948786188
101325.4175639487
101325.3426241711
101325.2709949059
101325.2038169506
101325.1423883527
101325.0881851742
101325.0427960781
101325.0079291941
101324.9853443168
101324.9768685745
101324.9843148345
101325.0093556112
101325.0529460122
101325.1140593825
101325.1880009205
101325.2676646737
101325.3484340363
101325.4292530735
101325.510014884
101325.5906673487
101325.670964778
101325.7506701524
101325.8292816605
101325.9062790525
101325.9808470348
101326.0521337402
101326.1189875841
101326.1802324967
101326.234426987
101326.280155621
101326.3157957738
101326.3398051702
101326.3504799849
101326.346239074
101326.3254470786
101326.2870033271
101326.2310202097
101326.1607262799
101326.0824977
101326.0021335801
101325.9215474345
101325.8410093026
101325.7605482066
101325.6803294668
101325.6005962158
101325.5217315893
101325.4442517709
101325.3688450918
101325.2963640835
101325.2278528033
101325.1645256803
101325.1077812642
101325.0591669755
101325.0203795601
101324.9932239824
101324.9796152181
101324.9815173667
101325.0008223606
101325.0388758354
101325.0953386996
101325.1663628261
101325.2448361684
101325.3251100268
101325.4055099149
101325.4858716721
101325.5661518817
101325.6461453102
101325.7256450328
101325.8042074468
101325.8813640639
101325.956378554
101326.0284688343
101326.0965734491
101326.1595867985
101326.2161424465
101326.2648610023
101326.3041408105
101326.3324069406
101326.3479001814
101326.3489260757
101326.3336961407
101326.3008222034
101326.2498793551
101326.1832173131
101326.1067318737
101326.0269896654
101325.946813142
101325.8666694357
101325.7865771766
101325.7066729972
101325.6271663873
101325.5483893408
101325.4708046868
101325.3950282337
101325.3218395129
101325.2521949742
101325.1872302448
101325.1282640823
101325.0767894499
101325.034465529
101325.0031023296
101324.9846501866
101324.9811626855
101324.9946847572
101325.0268863979
101325.0780886818
101325.1454588163
101325.2222963736
101325.3019899851
101325.3819783398
101325.4619464882
101325.5418560502
101325.6215388088
101325.7008158475
101325.7792952043
101325.85655527
101325.9319288555
101326.0046966579
101326.0738777936
101326.1384335161
101326.1970705917
101326.2484544938
101326.2910193913
101326.3231849162
101326.3431675065
101326.3491988154
101326.3393791776
101326.3120928408
101326.2664609924
101326.2040007734
101326.1299025437
101326.0512037134
101325.9717301254
101325.892266723
101325.8128416393
101325.7335809348
101325.6546833913
101325.5764727642
101325.4994093231
101325.4241099255
101325.3513632346
101325.282140561
101325.2175987797
101325.1590702157
101325.1080290659
101325.0660078633
101325.0343917152
101325.0139220256
101325.0037279388
101325.0005101095
101325.0000249882
101325.0000002902
101324.9999999997
101324.9999999992
101324.9999999992
101324.9999999992
101324.9999999991
101324.9999999992
101324.9999999992
101324.9999999992
101324.9999999992
101324.9999999993
101324.999999999
101324.9999999993
101324.9999999993
101324.9999999992
101324.9999999993
101324.9999999992
101324.9999999993
101324.9999999993
101324.9999999993
101324.9999999993
101324.9999999992
101324.9999999993
101324.9999999993
101324.9999999993
101324.9999999993
101324.9999999993
101324.9999999993
101324.9999999993
101324.9999999994
101324.9999999993
101324.9999999993
101324.9999999993
101324.9999999993
101324.9999999993
101324.9999999993
101324.9999999994
101324.9999999994
101324.9999999993
101324.9999999993
101324.9999999994
101324.9999999993
101324.9999999993
101324.9999999993
101324.9999999994
101324.9999999993
101324.9999999993
101324.9999999994
101324.9999999993
101324.9999999994
101324.9999999993
101324.9999999994
101324.9999999993
101324.9999999993
101324.9999999993
101324.9999999993
101324.9999999994
101324.9999999993
101324.9999999993
101324.9999999993
101324.9999999993
101324.9999999993
101324.9999999994
101324.9999999992
101324.9999999994
101324.9999999992
101324.9999999993
101324.9999999993
101324.9999999993
101324.9999999992
101324.9999999993
101324.9999999993
101324.9999999992
101324.9999999993
101324.9999999992
101324.9999999992
101324.9999999992
101324.9999999992
101324.9999999993
101324.9999999992
101324.9999999992
101324.9999999992
101324.9999999993
101324.9999999991
101324.9999999992
101324.9999999992
101324.9999999991
101324.9999999992
101324.9999999992
101324.9999999991
101324.9999999991
101324.9999999991
101324.9999999992
101324.9999999991
101324.9999999992
101324.9999999991
101324.9999999992
101324.9999999992
101324.9999999992
101324.9999999991
101324.9999999992
101324.9999999991
101324.9999999992
101324.9999999991
101324.999999999
101324.9999999992
101324.9999999991
101324.9999999991
101324.9999999991
101324.9999999991
101324.9999999991
101324.9999999991
101324.9999999992
101324.9999999992
101324.9999999991
101324.9999999991
101324.9999999991
101324.9999999991
101324.9999999991
101324.9999999991
101324.9999999992
101324.9999999991
101324.9999999991
101324.9999999991
101324.9999999991
101324.9999999991
101324.9999999991
101324.9999999991
101324.9999999991
101324.9999999991
101324.9999999992
101324.9999999991
101324.9999999992
101324.9999999992
101324.9999999992
101324.9999999991
101324.9999999992
101324.9999999992
101324.9999999992
101324.9999999992
101324.9999999992
101324.9999999991
101324.9999999992
101324.9999999991
101324.9999999992
101324.9999999993
101324.9999999991
101324.9999999992
101324.9999999993
101324.9999999993
101324.9999999992
101324.9999999992
101324.9999999992
101324.9999999992
101324.9999999991
101324.9999999993
101324.9999999991
101324.9999999992
101324.9999999992
101324.9999999992
101324.9999999991
101324.9999999991
101324.9999999993
101324.999999999
101324.9999999991
101324.9999999991
101324.9999999991
101324.9999999991
101324.999999999
101324.9999999992
101324.999999999
101324.9999999991
101324.9999999991
101324.999999999
101324.9999999992
101324.9999999991
101324.9999999991
101324.9999999991
101324.9999999991
101324.9999999991
101324.9999999991
101324.9999999992
101324.9999999991
101324.9999999991
101324.9999999991
101324.9999999991
101324.9999999992
101324.9999999991
101324.9999999991
101324.9999999993
101324.9999999992
101324.9999999992
101324.9999999992
101324.9999999992
101324.9999999992
101324.9999999992
101324.9999999992
101324.9999999992
101324.9999999991
101324.9999999992
101324.9999999991
101324.9999999992
101324.9999999992
101324.9999999993
101324.9999999992
101324.9999999992
101324.9999999993
101324.9999999993
101324.9999999993
101324.9999999992
101324.9999999992
101324.9999999993
101324.9999999992
101324.9999999993
101324.9999999993
101324.9999999993
101324.9999999993
101324.9999999993
101324.9999999993
101324.9999999992
101324.9999999993
101324.9999999992
101324.9999999992
101324.9999999993
101324.9999999992
101324.9999999993
101324.9999999992
101324.9999999993
101324.9999999992
101324.9999999993
101324.9999999993
101324.9999999993
101324.9999999993
101324.9999999993
101324.9999999992
101324.9999999993
101324.9999999993
101324.9999999992
101324.9999999993
101324.9999999992
101324.9999999993
101324.9999999993
101324.9999999993
101324.9999999993
101324.9999999993
101324.9999999992
101324.9999999992
101324.9999999993
101324.9999999993
101324.9999999993
101324.9999999993
101324.9999999992
101324.9999999993
101324.9999999992
101324.9999999993
101324.9999999993
101324.9999999993
101324.9999999993
101324.9999999993
101324.9999999994
101324.9999999993
101324.9999999993
101324.9999999993
101324.9999999993
101324.9999999993
101324.9999999993
101324.9999999993
101324.9999999992
101324.9999999993
101324.9999999993
101324.9999999993
101324.9999999993
101324.9999999992
101324.9999999993
101324.9999999993
101324.9999999993
101324.9999999993
101324.9999999993
101324.9999999993
101324.9999999992
101324.9999999993
101324.9999999993
101324.9999999993
101324.9999999993
101324.9999999993
101324.9999999993
101324.9999999992
101324.9999999992
101324.9999999993
101324.9999999993
101324.9999999992
101324.9999999991
101324.9999999993
101324.9999999992
101324.9999999993
101324.9999999993
101324.9999999993
101324.9999999992
101324.9999999991
101324.9999999993
101324.9999999993
101324.9999999992
101324.9999999993
101324.9999999991
101324.9999999992
101324.9999999992
101324.9999999992
101324.9999999992
101324.9999999992
101324.9999999992
101324.9999999991
101324.9999999993
101324.9999999991
101324.9999999993
101324.9999999991
101324.9999999993
101324.9999999992
101324.9999999991
101324.9999999993
101324.9999999991
101324.9999999993
101324.9999999992
101324.9999999992
101324.9999999992
101324.9999999991
101324.9999999992
101324.9999999992
101324.9999999992
101324.9999999991
101324.9999999992
101324.9999999991
101324.9999999992
101324.9999999992
101324.999999999
101324.9999999992
101324.9999999991
101324.9999999992
101324.999999999
101324.9999999991
101324.9999999991
101324.9999999991
101324.9999999991
101324.9999999991
101324.9999999991
101324.9999999991
101324.9999999991
101324.999999999
101324.999999999
101324.9999999991
101324.9999999991
101324.999999999
101324.9999999991
101324.999999999
101324.999999999
101324.9999999991
101324.9999999989
101324.9999999991
101324.9999999991
101324.9999999989
101324.999999999
101324.999999999
101324.9999999991
101324.999999999
101324.999999999
101324.999999999
101324.999999999
101324.999999999
101324.999999999
101324.999999999
101324.999999999
101324.9999999989
101324.999999999
101324.999999999
101324.999999999
101324.9999999991
101324.9999999991
101324.999999999
101324.9999999991
101324.9999999991
101324.9999999991
101324.999999999
101324.999999999
101324.999999999
101324.9999999991
101324.9999999989
101324.999999999
101324.9999999991
101324.999999999
101324.999999999
101324.999999999
101324.999999999
101324.999999999
101324.9999999991
101324.999999999
101324.999999999
101324.9999999991
101324.999999999
101324.999999999
101324.9999999991
101324.9999999991
101324.999999999
101324.999999999
101324.9999999992
101324.9999999991
101324.9999999992
101324.9999999991
101324.9999999992
101324.9999999991
101324.9999999991
101324.9999999991
101324.9999999991
101324.9999999991
101324.9999999992
101324.9999999991
101324.9999999991
101324.9999999991
101324.9999999991
101324.9999999991
101324.999999999
101324.9999999991
101324.9999999991
101324.9999999991
101324.999999999
101324.9999999992
101324.999999999
101324.9999999991
101324.9999999991
101324.9999999991
101324.9999999991
101324.9999999991
101324.9999999991
101324.999999999
101324.999999999
101324.999999999
101324.9999999989
101324.9999999989
101324.999999999
101324.999999999
101324.9999999989
101324.999999999
101324.9999999989
)
;

boundaryField
{
    inlet
    {
        type            calculated;
        value           uniform 101325.0000001514;
    }
    outlet
    {
        type            calculated;
        value           uniform 101324.9999999989;
    }
    frontAndBack
    {
        type            empty;
    }
}


// ************************************************************************* //
