/*--------------------------------*- C++ -*----------------------------------*\
| =========                 |                                                 |
| \\      /  F ield         | OpenFOAM: The Open Source CFD Toolbox           |
|  \\    /   O peration     | Version:  v2012                                 |
|   \\  /    A nd           | Website:  www.openfoam.com                      |
|    \\/     M anipulation  |                                                 |
\*---------------------------------------------------------------------------*/
FoamFile
{
    version     2.0;
    format      ascii;
    class       volScalarField;
    location    "0.004";
    object      rho;
}
// * * * * * * * * * * * * * * * * * * * * * * * * * * * * * * * * * * * * * //

dimensions      [1 -3 0 0 0 0 0];


internalField   nonuniform List<scalar> 
1000
(
1.176301041785363
1.176324609244856
1.176270783930609
1.176227457166439
1.176176787849908
1.176130446620148
1.176091159845337
1.17605821076066
1.176029852797853
1.176010114328989
1.176004285646547
1.176004052692223
1.176006485800491
1.176014008965691
1.1760295396007
1.176053750881788
1.176085745719236
1.176123979539469
1.176167168134242
1.176214454579177
1.176265162202447
1.176318569286446
1.176373826026271
1.176429931556655
1.176485746411868
1.176540097725543
1.176591986790293
1.176640848208499
1.176686739344538
1.17673000410855
1.176769419040169
1.176798928802937
1.176811494170138
1.176813008781769
1.17681245766102
1.176810690057458
1.17680527132177
1.176794286250981
1.176775747436854
1.176748576497979
1.176712912920189
1.176670033685156
1.176621775653376
1.176569873008576
1.176515623866195
1.176459958550409
1.17640367607266
1.176347617974834
1.176292682028272
1.176239616405655
1.176188651308026
1.176139429976403
1.176092140258984
1.176050529500367
1.176023572306947
1.176015042159282
1.176014500012986
1.176014728299581
1.176016608423229
1.176021247415378
1.176030580765471
1.176046344787088
1.1760699400994
1.176102000850489
1.176142185768754
1.176189225876887
1.17624126611897
1.176296361962734
1.176352875154022
1.176409594291216
1.176465658970427
1.176520526841389
1.176574079938015
1.17662665482016
1.176678591113377
1.176728774035735
1.176771829335253
1.176797988822466
1.176805537668156
1.176806023818569
1.176805561185653
1.17680412642248
1.176800177952174
1.176792338122042
1.176778965986339
1.176758585913687
1.176730152787017
1.176693353597577
1.17664875261292
1.176597719747086
1.176542167139613
1.176484170243795
1.176425564074037
1.176367623338165
1.17631091869761
1.17625535928141
1.176200413463115
1.176145769027676
1.176093212457585
1.176049812574674
1.176025945791812
1.176020272350878
1.176020108653343
1.176020358685955
1.176021882670881
1.176025535141321
1.176032737812691
1.176044923205089
1.176063487832574
1.176089536575227
1.176123649276887
1.176165676247774
1.176214660338166
1.17626896372938
1.176326581149004
1.176385534990912
1.17644425839406
1.17650190749008
1.176558496114134
1.176614652669073
1.176670718855823
1.176724745121099
1.176769513110917
1.176794528984889
1.176800839583304
1.176801176755931
1.176800812837526
1.176799668383552
1.176796576964745
1.176790445754295
1.176779925913277
1.176763661103326
1.176740438586226
1.176709418775878
1.176670340167331
1.176623655136252
1.176570557423069
1.176512843396851
1.17645256271878
1.176391527144194
1.176330875212026
1.176270900793127
1.176211298222445
1.176152117169899
1.176096088653063
1.17605173295495
1.176029213168463
1.176024454891477
1.176024352217082
1.17602456947612
1.176025813234505
1.176028780529208
1.176034617311735
1.176044528104786
1.176059769869306
1.176081491371713
1.176110565495808
1.176147394216187
1.17619174700998
1.176242710937755
1.176298792572677
1.176358165928886
1.176419049412936
1.176480147533341
1.17654096008958
1.176601644086399
1.176662066408006
1.176719592222839
1.176766086899988
1.176791036438348
1.176797023460168
1.176797332993256
1.176797046906497
1.176796141048885
1.176793667219404
1.176788726158645
1.176780176973924
1.176766812916037
1.176747450217753
1.176721090800656
1.176687091020132
1.176645316774688
1.176596260531476
1.176541056425109
1.176481308157212
1.176418723390439
1.176354684219281
1.176289967026639
1.176224875173876
1.176160239475793
1.176099980670087
1.176054003343126
1.176032103247682
1.176027860550646
1.176027781273927
1.176027964061011
1.176028995060503
1.176031452806074
1.176036294082542
1.176044549829678
1.176057338990832
1.176075759684225
1.176100770466256
1.176133033787655
1.176172759857772
1.176219608675518
1.176272687415145
1.176330660480609
1.176392000147918
1.176455365115545
1.176519937962383
1.17658537306557
1.176650886484381
1.176712933313974
1.176762221688541
1.17678790619308
1.1767938647317
1.176794171520504
1.176793943101986
1.176793217116615
1.176791201375704
1.176787142588118
1.17678006301526
1.176768894969833
1.176752532926344
1.176729949784633
1.176700325640333
1.176663181628442
1.176618508188046
1.176566839054304
1.176509190127759
1.17644683192528
1.176380971631431
1.176312513482403
1.176242184969365
1.1761716021178
1.176106042967462
1.176057125778892
1.176034805024575
1.176030715704286
1.176030635956826
1.176030787356431
1.176031650620758
1.176033715814824
1.176037797228889
1.176044786167934
1.176055675828175
1.17607148581605
1.176093178125766
1.176121535875943
1.176157031029293
1.176199723156929
1.176249215907837
1.176304689041503
1.176365045963441
1.176429190517462
1.176496302013792
1.176565778656093
1.176636331706935
1.176703572796359
1.176756957598041
1.176784680113723
1.176791135526341
1.176791487222797
1.176791306985095
1.176790726602773
1.176789069187796
1.176785694205968
1.176779754685243
1.176770306543646
1.176756336711973
1.176736845699528
1.176710942105074
1.176677948606957
1.176637516526774
1.176589712886002
1.176535013449918
1.176474171244261
1.176408011907819
1.176337286105305
1.176262853542233
1.176186825912444
1.176115515434533
1.176062140490928
1.176037758190011
1.176033232005587
1.176033110774193
1.176033227572381
1.176033943073878
1.176035680650099
1.176039148151975
1.176045125075119
1.176054495299081
1.176068193707235
1.176087147529123
1.17611218429189
1.176143926406231
1.176182702732223
1.17622849359258
1.176280923200675
1.176339339636293
1.176403003600182
1.176471281012655
1.176543547650373
1.176618293844472
1.176690691464231
1.176749322317931
1.176780818656297
1.176788623293299
1.17678911850594
1.176788981273268
1.176788530385427
1.176787173369333
1.1767843579507
1.176779339998463
1.176771280559216
1.176759257539087
1.176742323872983
1.176719573866333
1.176690222724084
1.176653700491905
1.17660973270493
1.176558356203441
1.176499849471405
1.176434617316205
1.176363127540512
1.176286143405577
1.176205881391569
1.176129023292398
1.176069801010265
1.17604136077725
1.176035579581922
1.17603534762344
1.176035427483151
1.176036004570875
1.176037449863593
1.17604039284412
1.176045524249671
1.176053637246695
1.176065587279943
1.176082251628227
1.176104460403243
1.176132916226296
1.176168123481037
1.176210334629207
1.176259523971195
1.176315426240947
1.176377660130781
1.176445849700657
1.176519499095375
1.176597155228562
1.176674074644167
1.176738670888505
1.176775786129248
1.176786124287466
1.17678695242058
1.176786854014271
1.176786521493594
1.176785427197158
1.176783090316738
1.176778846313033
1.176771943138279
1.176761540413248
1.176746750622553
1.176726683408389
1.176700503079655
1.176667502246445
1.176627169043246
1.176579209871585
1.17652351848252
1.176460123339082
1.176389181296961
1.176311222018403
1.17622823394277
1.176146578413071
1.176080623751067
1.176046076533994
1.176037916920132
1.176037436295901
1.176037480982504
1.176037929757969
1.176039107194127
1.176041585739075
1.176045984888519
1.176053024469269
1.176063490764548
1.176078208586141
1.176097989761411
1.176123574094382
1.176155575635997
1.176194434733254
1.176240384561364
1.176293466315557
1.176353607969991
1.176420693213826
1.176494427285775
1.176573606007896
1.176654005444586
1.176724652612526
1.176768981928157
1.176783388634525
1.176784911709893
1.176784853164111
1.176784627170042
1.17678376420959
1.176781846324147
1.176778270101813
1.176772354804926
1.176763330284443
1.176750366795351
1.176732602982102
1.176709186752143
1.17667933161011
1.176642369065656
1.176597770852079
1.176545141682104
1.176484206615731
1.176414835177241
1.176337266991123
1.176253062759286
1.176167762874922
1.176094941010564
1.176052499390434
1.176040448825214
1.176039433470317
1.176039444533657
1.176039779531877
1.176040712737502
1.176042774115747
1.176046524902905
1.176052625880503
1.176061805047538
1.176074838053069
1.17609250958936
1.176115571325088
1.176144702046077
1.176180466043659
1.176223278874493
1.176273410986496
1.176331036802327
1.176396267769107
1.176469026701375
1.176548449796757
1.176631082962161
1.17670720402598
1.176759765972849
1.17678005569779
1.176782923252581
1.176782938972429
1.1767828017778
1.176782139623623
1.17678059072694
1.176777599146353
1.176772543337957
1.17676471259555
1.176753329760751
1.176737567693015
1.176716578491867
1.176689535894759
1.17665567384987
1.176614305406312
1.176564829629181
1.176506741886624
1.176439669210096
1.176363561597081
1.176279481838266
1.176191899860508
1.176112840462939
1.176061307788021
1.176043494764734
1.176041383730758
1.176041352087258
1.176041589794076
1.17604230500353
1.176043992279316
1.17604716314904
1.176052430770951
1.176060474160175
1.176072024942334
1.176087838104432
1.176108662828637
1.176135212744186
1.176168129926336
1.176207953587554
1.176255119220453
1.176309987784323
1.176372855214405
1.176443845464267
1.176522448147388
1.176606051224391
1.176686555312067
1.176747575428339
1.176775597579121
1.176780897403354
1.176781089543351
1.176781018047903
1.176780527232196
1.176779301484233
1.176776824101556
1.176772524227611
1.176765741458448
1.176755745504353
1.176741744603611
1.176722907031923
1.176698392452267
1.176667378567259
1.176629076320731
1.176582745052077
1.176527713813067
1.176463416538551
1.176389546113771
1.176306686181193
1.176218197122624
1.176134115312266
1.176073136360554
1.176047541889845
1.17604334928755
1.176043224222075
1.176043380013559
1.176043905306814
1.176045261099244
1.176047912949833
1.176052435187242
1.176059465001597
1.176069695311247
1.176083852336899
1.176102675418478
1.176126894481321
1.176157199950343
1.17619421663522
1.176238501575669
1.176290560236433
1.176350842792089
1.176419656288902
1.176496807769155
1.176580417381297
1.176663914139663
1.176732258350372
1.176768609121721
1.176777391586306
1.176777938468631
1.176777897688267
1.176777493602094
1.176776408843277
1.176774112615022
1.176770022225258
1.176763454214541
1.176753647963888
1.17673977946654
1.176720989756588
1.176696431062564
1.176665345087997
1.176627214022806
1.176582108234964
1.176531557016036
1.176480447690332
1.176438955120433
1.176417341365859
1.176412125500935
1.176411722964569
1.176411716189254
1.176411716172185
1.176411716172183
1.176411716172184
1.176411716172183
1.176411716172181
1.176411716172176
1.176411716172175
1.176411716172174
1.176411716172175
1.176411716172178
1.176411716172185
1.176411716172183
1.176411716172182
1.176411716172181
1.176411716172182
1.176411716172184
1.176411716172186
1.176411716172187
1.176411716172187
1.176411716172186
1.176411716172185
1.176411716172183
1.176411716172183
1.176411716172183
1.17641171617218
1.17641171617218
1.176411716172178
1.17641171617218
1.176411716172179
1.176411716172177
1.176411716172174
1.176411716172175
1.176411716172178
1.176411716172178
1.17641171617218
1.17641171617218
1.176411716172179
1.176411716172179
1.176411716172175
1.176411716172175
1.176411716172174
1.176411716172175
1.17641171617218
1.176411716172182
1.176411716172177
1.176411716172182
1.17641171617218
1.17641171617218
1.176411716172178
1.176411716172181
1.176411716172179
1.176411716172179
1.176411716172177
1.17641171617218
1.17641171617218
1.176411716172181
1.17641171617218
1.176411716172179
1.176411716172183
1.176411716172177
1.176411716172179
1.176411716172178
1.176411716172183
1.17641171617218
1.17641171617218
1.176411716172179
1.17641171617218
1.176411716172182
1.176411716172182
1.17641171617218
1.176411716172182
1.176411716172183
1.176411716172183
1.176411716172183
1.176411716172181
1.176411716172184
1.176411716172179
1.176411716172185
1.176411716172182
1.176411716172182
1.176411716172181
1.176411716172184
1.176411716172185
1.176411716172185
1.176411716172183
1.176411716172186
1.176411716172178
1.176411716172178
1.176411716172175
1.176411716172174
1.176411716172177
1.176411716172172
1.176411716172174
1.176411716172174
1.176411716172179
1.176411716172183
1.176411716172183
1.176411716172185
1.176411716172186
1.176411716172187
1.176411716172181
1.176411716172183
1.176411716172183
1.176411716172183
1.176411716172183
1.176411716172184
1.176411716172186
1.176411716172187
1.17641171617219
1.176411716172188
1.176411716172185
1.176411716172188
1.176411716172182
1.17641171617218
1.176411716172178
1.176411716172174
1.176411716172177
1.176411716172179
1.176411716172181
1.176411716172183
1.176411716172183
1.176411716172177
1.176411716172176
1.176411716172175
1.176411716172177
1.176411716172175
1.176411716172174
1.176411716172175
1.176411716172181
1.176411716172177
1.17641171617218
1.17641171617218
1.17641171617218
1.176411716172184
1.176411716172182
1.176411716172183
1.176411716172182
1.176411716172182
1.176411716172181
1.176411716172183
1.17641171617218
1.176411716172179
1.176411716172179
1.17641171617218
1.176411716172183
1.176411716172182
1.176411716172177
1.176411716172179
1.176411716172177
1.176411716172177
1.176411716172177
1.176411716172179
1.176411716172181
1.176411716172182
1.176411716172178
1.176411716172178
1.176411716172177
1.176411716172177
1.176411716172179
1.176411716172176
1.176411716172182
1.176411716172182
1.176411716172182
1.176411716172179
1.17641171617218
1.176411716172182
1.176411716172184
1.176411716172184
1.176411716172186
1.176411716172184
1.176411716172183
1.176411716172183
1.176411716172185
1.176411716172184
1.176411716172183
1.176411716172182
1.176411716172182
1.176411716172182
1.176411716172183
1.176411716172181
1.176411716172182
1.176411716172182
1.17641171617218
1.176411716172177
1.176411716172183
1.17641171617218
1.176411716172178
1.176411716172178
1.176411716172177
1.176411716172177
1.176411716172177
1.176411716172175
1.176411716172182
1.176411716172184
1.176411716172182
1.176411716172182
1.176411716172182
1.176411716172184
1.176411716172182
1.176411716172181
1.176411716172182
1.176411716172182
1.176411716172184
1.176411716172184
1.176411716172184
1.176411716172184
1.176411716172182
1.176411716172181
1.17641171617218
1.17641171617218
1.176411716172176
1.176411716172177
1.176411716172176
1.176411716172177
1.176411716172175
1.176411716172175
1.176411716172175
1.176411716172177
1.176411716172177
1.176411716172178
1.17641171617218
1.176411716172182
1.176411716172184
1.176411716172188
1.176411716172182
1.176411716172184
1.176411716172184
1.176411716172185
1.176411716172187
1.176411716172185
1.176411716172191
1.176411716172193
1.176411716172189
1.176411716172187
1.176411716172184
1.176411716172183
1.176411716172182
1.176411716172182
1.176411716172183
1.176411716172184
1.176411716172184
1.176411716172184
1.176411716172184
1.176411716172185
1.176411716172182
1.17641171617218
1.17641171617218
1.176411716172179
1.176411716172179
1.17641171617218
1.17641171617218
1.176411716172181
1.176411716172182
1.176411716172184
1.176411716172183
1.176411716172184
1.176411716172182
1.176411716172182
1.176411716172183
1.176411716172182
1.176411716172181
1.176411716172183
1.176411716172182
1.176411716172183
1.176411716172187
1.176411716172184
1.176411716172185
1.176411716172183
1.176411716172182
1.176411716172184
1.176411716172182
1.176411716172182
1.176411716172182
1.17641171617218
1.176411716172177
1.176411716172179
1.176411716172178
1.176411716172177
1.176411716172177
1.17641171617218
1.176411716172182
1.176411716172183
1.176411716172184
1.176411716172183
1.176411716172182
1.176411716172183
1.176411716172179
1.176411716172179
1.17641171617218
1.176411716172183
1.17641171617218
1.17641171617218
1.17641171617218
1.176411716172183
1.176411716172179
1.176411716172182
1.176411716172179
1.17641171617218
1.176411716172184
1.176411716172184
1.176411716172184
1.176411716172182
1.176411716172179
1.176411716172183
1.176411716172182
1.176411716172183
1.176411716172181
1.176411716172183
1.17641171617218
1.176411716172183
1.176411716172177
1.176411716172184
1.176411716172183
1.176411716172184
1.176411716172182
1.176411716172184
1.176411716172183
1.17641171617218
1.176411716172183
1.176411716172179
1.176411716172178
1.176411716172179
1.176411716172179
1.176411716172179
1.176411716172179
1.176411716172183
1.176411716172179
1.176411716172178
1.176411716172179
1.176411716172177
1.176411716172178
1.176411716172174
1.176411716172177
1.176411716172177
1.176411716172179
1.176411716172177
1.176411716172179
1.176411716172178
1.17641171617218
1.176411716172179
1.176411716172179
1.176411716172179
1.176411716172179
1.176411716172179
1.176411716172179
1.176411716172176
1.176411716172179
1.176411716172179
1.176411716172179
1.17641171617218
1.176411716172182
1.176411716172182
1.176411716172184
1.176411716172183
1.176411716172183
1.176411716172184
1.176411716172182
1.176411716172183
1.176411716172182
1.176411716172179
1.176411716172179
1.176411716172177
1.176411716172179
1.176411716172179
1.176411716172179
1.176411716172179
1.176411716172176
1.176411716172179
1.176411716172177
1.176411716172176
1.176411716172178
1.176411716172176
1.176411716172179
1.176411716172179
1.176411716172176
1.176411716172179
1.176411716172179
1.176411716172179
1.176411716172175
1.176411716172179
1.176411716172177
1.176411716172177
1.17641171617218
1.176411716172182
1.176411716172182
1.176411716172182
1.17641171617218
1.176411716172179
1.176411716172179
1.176411716172179
1.176411716172179
1.176411716172183
1.176411716172182
1.176411716172182
1.176411716172182
1.17641171617218
1.17641171617218
1.176411716172176
1.176411716172178
1.176411716172171
1.176411716172173
1.176411716172173
1.176411716172173
1.176411716172169
1.176411716172173
1.176411716172173
1.176411716172173
1.176411716172175
1.176411716172172
1.176411716172173
1.176411716172173
1.176411716172175
1.176411716172172
1.176411716172173
1.176411716172173
1.176411716172173
1.176411716172173
1.176411716172173
1.176411716172177
1.176411716172176
1.176411716172173
1.176411716172176
1.176411716172175
1.176411716172174
1.176411716172172
1.176411716172172
1.176411716172171
1.176411716172173
1.176411716172175
1.176411716172176
1.176411716172178
1.17641171617218
1.176411716172177
1.176411716172182
1.176411716172182
1.176411716172182
1.176411716172182
1.176411716172182
1.176411716172182
)
;

boundaryField
{
    inlet
    {
        type            calculated;
        value           uniform 1.176411716172193;
    }
    outlet
    {
        type            calculated;
        value           uniform 1.176411716172182;
    }
    frontAndBack
    {
        type            empty;
    }
}


// ************************************************************************* //
