/*--------------------------------*- C++ -*----------------------------------*\
| =========                 |                                                 |
| \\      /  F ield         | OpenFOAM: The Open Source CFD Toolbox           |
|  \\    /   O peration     | Version:  v2012                                 |
|   \\  /    A nd           | Website:  www.openfoam.com                      |
|    \\/     M anipulation  |                                                 |
\*---------------------------------------------------------------------------*/
FoamFile
{
    version     2.0;
    format      ascii;
    class       volScalarField;
    location    "0.004";
    object      T;
}
// * * * * * * * * * * * * * * * * * * * * * * * * * * * * * * * * * * * * * //

dimensions      [0 0 0 1 0 0 0];


internalField   nonuniform List<scalar> 
1000
(
299.9885065263621
299.9903102822336
299.9839875251112
299.9792959958856
299.9747704618725
299.9708203899517
299.9672018438362
299.9639235550657
299.961024297494
299.9590276960561
299.9584659544228
299.9584966302252
299.9587985996686
299.9595578392929
299.9610941240182
299.9635150141697
299.9667441661083
299.9706231497757
299.9750169926808
299.9798359996151
299.9850102548257
299.9904652274246
299.9961125486483
300.001847833675
300.0075526046072
300.0131056188017
300.0184043074
300.0233911668133
300.0280727655115
300.032485019762
300.0365039998044
300.0395127168081
300.0407931165807
300.0409467076976
300.0408902483172
300.040710401873
300.0401585614214
300.039038577417
300.0371475213412
300.0343753968172
300.0307364100435
300.0263608608937
300.0214362272918
300.0161395247688
300.0106032623279
300.0049223986419
299.9991784722745
299.9934573491026
299.9878506318798
299.9824346633831
299.9772329317432
299.9722090254324
299.9673821279192
299.9631347619099
299.9603830664744
299.9595123164712
299.9594569624765
299.9594802523897
299.95967216734
299.9601457100396
299.9610984325674
299.9627075585475
299.9651160387066
299.9683885732126
299.9724902868303
299.9772916086154
299.9826031538151
299.9882264201874
299.9939941833284
299.9997827997348
300.0055044602433
300.0111038231993
300.0165688604866
300.0219339269619
300.0272336858038
300.0323543879305
300.0367476696699
300.0394168789576
300.0401871268308
300.0402367336313
300.0401895316242
300.0400431383745
300.0396402568302
300.038840315871
300.0374758742534
300.0353963504014
300.0324950793972
300.0287400861544
300.0241889028318
300.0189812697976
300.0133122678621
300.0073936620021
300.0014127024832
299.9954994778172
299.9897122362149
299.9840417138918
299.978433659057
299.9728562078659
299.9674917093994
299.9630617241066
299.960625504396
299.9600463795148
299.9600296711326
299.9600551956723
299.960210760136
299.9605835911277
299.9613188103151
299.9625626380964
299.964457612742
299.9671164939733
299.9705984368222
299.9748881200497
299.979887799481
299.9854302609643
299.9913108008249
299.9973275603215
300.0033206225326
300.0092038719082
300.0149787299316
300.020709331037
300.0264305454072
300.0319434384762
300.0365114824513
300.0390640022404
300.0397079054803
300.0397423101534
300.0397051789702
300.0395884055326
300.0392729716852
300.0386473690326
300.0375739637645
300.0359143513778
300.0335447712826
300.0303795269629
300.0263918964529
300.0216279934743
300.0162095810315
300.010319926434
300.0041681635257
299.9979391702085
299.9917491386271
299.9856280657128
299.9795447591096
299.9735042898726
299.9677854178626
299.9632578710514
299.9609591480717
299.9604734407227
299.9604629612044
299.9604851399993
299.9606120995283
299.9609149899067
299.9615107842454
299.9625224315092
299.9640782286183
299.966295421098
299.9692630837905
299.9730222130007
299.9775492355863
299.9827509208379
299.9884747945648
299.9945344544179
300.0007480486599
300.0069833552359
300.0131893270867
300.0193819880268
300.0255477537503
300.0314177644258
300.0361620053814
300.0387077603327
300.0393186490415
300.0393502340677
300.0393210449694
300.0392286173607
300.0389761998658
300.0384720353191
300.0375997090783
300.0362360828635
300.0342603571487
300.0315706704378
300.0281013158212
300.0238385688718
300.0188326335484
300.0131991916139
300.0071018513937
300.0007148468071
299.9941792050576
299.9875741508
299.9809306391268
299.974333463765
299.968182820762
299.9634897534908
299.9612542882783
299.9608212108551
299.9608131203178
299.9608317812596
299.9609370239297
299.9611879020255
299.9616820797578
299.9625247884195
299.9638302388877
299.9657105107807
299.9682634298782
299.9715565872654
299.9756114023958
299.9803931267477
299.98581058387
299.9917274112503
299.9979876499995
300.0044543834373
300.011044173559
300.0177217378084
300.0244070690053
300.0307384383206
300.035767755578
300.0383885074589
300.0389964913454
300.0390277969861
300.039004492714
300.0389304191569
300.038724743451
300.0383106027658
300.0375882307873
300.0364486802707
300.0347791385011
300.0324747878981
300.0294519431242
300.0256617072521
300.0211030613395
300.0158304195797
300.0099473991085
300.0035836075381
299.9968622012362
299.9898754312836
299.9826975200398
299.9754933884468
299.9688017648467
299.9638086241413
299.9615302218687
299.9611128013178
299.9611046630171
299.9611201204536
299.9612082416756
299.9614190498454
299.9618356641882
299.9625490632766
299.9636606237166
299.9652744137779
299.9674886145301
299.9703831399082
299.9740061334636
299.9783636361537
299.9834151469638
299.9890768986416
299.9952369230485
300.0017833062121
300.0086322576505
300.0157223335424
300.022921997425
300.0297834391488
300.0352307684218
300.0380594757726
300.0387181590898
300.0387540469204
300.0387356587341
300.0386764418732
300.0385073281305
300.0381629600284
300.0375569146396
300.0365928580766
300.035167413807
300.0331785852179
300.0305353969446
300.0271687081178
300.0230429019785
300.0181647711955
300.0125828125918
300.0063738157237
299.9996219838063
299.9924038744273
299.9848071806883
299.9770473908647
299.9697687733622
299.9643206319599
299.9618317989435
299.9613697851544
299.9613574121187
299.9613693371357
299.9614423750355
299.9616197409861
299.9619736894231
299.962583786345
299.9635402508114
299.9649385049153
299.9668731843588
299.9694287406267
299.9726686794789
299.9766265339569
299.9813002533758
299.9866514340682
299.9926134872248
299.9991109083476
300.0060789357811
300.0134538183223
300.0210814539086
300.0284691379788
300.0344517990005
300.0376655812923
300.0384619336157
300.0385124647648
300.0384984640637
300.0384524597107
300.0383139969157
300.038026723826
300.0375147113313
300.0366923532671
300.0354655574907
300.0337376794938
300.0314162896034
300.0284212858949
300.0246944784505
300.0202078188126
300.0149650157095
300.0089944296899
300.0023373083677
299.9950413264235
299.9871843132613
299.9789924272298
299.9711476321993
299.965102666949
299.9621996247851
299.9616095042156
299.9615858281383
299.9615939818295
299.9616528903766
299.9618004206698
299.9621008276135
299.9626246174686
299.9634527504425
299.9646725413164
299.9663735294786
299.9686404338102
299.9715449520734
299.9751385384447
299.9794469239247
299.984467439646
299.9901729590436
299.9965245084778
300.0034836603674
300.0109997486514
300.0189244260869
300.0267736045625
300.0333650175374
300.0371521482201
300.038207010334
300.0382915106522
300.0382814709472
300.0382475435456
300.0381358869764
300.0378974413726
300.037464399069
300.0367600220143
300.0356985570863
300.0341894380772
300.032141803423
300.0294703622366
300.0261029059798
300.0219871667387
300.0170931378523
300.0114099199214
300.0049403508378
299.9977003627372
299.9897439291812
299.9812739118935
299.9729395361926
299.9662074308162
299.9626810297928
299.9618481296933
299.9617990703436
299.9618036329495
299.9618494432343
299.9619696313193
299.9622226301233
299.962671674133
299.9633902379285
299.9644585776557
299.9659608789493
299.9679799971194
299.9705914290988
299.9738578275887
299.9778241057462
299.9825140212335
299.9879317279817
299.9940698163541
300.0009163501459
300.0084411754913
300.0165213305275
300.02472571745
300.0319346336193
300.0364578925552
300.0379278937303
300.0380833024547
300.0380773293811
300.0380542708458
300.0379662183296
300.0377705247799
300.0374056198601
300.036802042176
300.0358812054953
300.0345584398416
300.0327458454171
300.0303564612908
300.027310011583
300.0235382513037
300.018987232255
300.0136165630876
300.0073981200688
300.0003185087018
299.9924020932001
299.9838080629426
299.9751018217115
299.9676688412591
299.9633366444638
299.9621065728794
299.9620029300438
299.9620040599604
299.9620382557699
299.9621335134327
299.9623439292652
299.9627267910581
299.9633495467413
299.9642865038799
299.9656168312191
299.9674206164614
299.9697745707011
299.9727479582044
299.9763983476237
299.9807681162701
299.985884820104
299.9917662037926
299.9984235741414
300.0058489766201
300.0139541742557
300.0223866079254
300.030154171377
300.0355175090133
300.0375877945023
300.037880387802
300.0378819921098
300.0378679937922
300.0378004303455
300.037642386608
300.0373371360043
300.0368212573691
300.0360222304471
300.0348607521966
300.0332524159402
300.0311106913428
300.0283512485518
300.0248958919939
300.0206744859033
300.0156256581305
300.0096978484169
300.0028529160151
299.9950856635544
299.98650445282
299.977565404949
299.9694958481737
299.9642357288791
299.9624174536323
299.9622019681862
299.9621987384094
299.9622230026693
299.9622960079724
299.9624682368334
299.9627919031156
299.963329593907
299.9641506173499
299.9653296495885
299.9669437479199
299.9690693721594
299.9717793464729
299.9751391830114
299.9792038848245
299.9840178574169
299.9896178870175
299.996034110515
300.0032790994822
300.011300677917
300.0198322005608
300.0280471188008
300.0342735735053
300.0371328582668
300.0376736300157
300.037693235308
300.0376859403196
300.0376358593232
300.0375107882321
300.0372580042814
300.0368192584899
300.0361271637591
300.0351072002755
300.0336785728286
300.0317564039708
300.0292549309355
300.0260902229801
300.0221817301442
300.0174538271469
300.0118379862943
300.0052763646165
299.9977375260363
299.9892809260623
299.9802494229495
299.9716673422934
299.965443068884
299.962830508079
299.9624025447109
299.962389778618
299.962405681075
299.962459300405
299.9625976928146
299.962868379949
299.963329985591
299.9640475490702
299.9650917963509
299.9665368498248
299.9684581667497
299.9709302375135
299.974023512944
299.9778017370451
299.982321725527
299.9876350173288
299.9937874940293
300.0008104142065
300.0086839940373
300.0172162964362
300.0257367069001
300.0327105826973
300.0364197145369
300.0373158416431
300.0373716433405
300.0373674822158
300.0373262505383
300.037215565186
300.0369812651481
300.0365638937524
300.0358937113822
300.0348931034955
300.0334779846115
300.0315606974349
300.0290547202804
300.0258826527174
300.021991623562
300.0173887716225
300.0122301101399
300.0070143550828
300.002779889389
300.0005740861166
300.000041774501
300.0000006932046
300.0000000017444
300.0000000000025
300.0000000000016
300.0000000000015
300.0000000000013
300.0000000000021
300.0000000000028
300.0000000000029
300.0000000000031
300.0000000000031
300.0000000000022
300.0000000000025
300.0000000000027
300.0000000000028
300.0000000000034
300.0000000000038
300.0000000000029
300.0000000000025
300.0000000000024
300.0000000000023
300.0000000000028
300.0000000000027
300.0000000000028
300.0000000000031
300.0000000000026
300.0000000000025
300.0000000000026
300.0000000000024
300.0000000000027
300.0000000000027
300.0000000000031
300.0000000000035
300.0000000000034
300.0000000000032
300.0000000000032
300.0000000000031
300.0000000000031
300.000000000003
300.000000000003
300.0000000000038
300.0000000000041
300.0000000000039
300.0000000000043
300.000000000004
300.0000000000036
300.0000000000035
300.0000000000035
300.0000000000035
300.0000000000031
300.0000000000032
300.0000000000032
300.000000000003
300.0000000000026
300.0000000000029
300.000000000003
300.0000000000026
300.0000000000025
300.0000000000026
300.0000000000024
300.0000000000024
300.0000000000026
300.0000000000031
300.0000000000024
300.0000000000024
300.0000000000019
300.0000000000026
300.0000000000024
300.0000000000021
300.0000000000021
300.0000000000018
300.0000000000024
300.0000000000026
300.0000000000024
300.000000000002
300.0000000000024
300.0000000000016
300.0000000000024
300.0000000000021
300.0000000000027
300.0000000000026
300.0000000000033
300.0000000000029
300.0000000000027
300.0000000000026
300.0000000000028
300.0000000000022
300.0000000000026
300.0000000000028
300.0000000000029
300.0000000000029
300.000000000003
300.0000000000028
300.0000000000023
300.0000000000031
300.0000000000028
300.0000000000028
300.0000000000024
300.0000000000025
300.0000000000024
300.0000000000026
300.0000000000029
300.0000000000033
300.0000000000036
300.0000000000036
300.0000000000035
300.0000000000036
300.0000000000028
300.0000000000026
300.0000000000023
300.000000000002
300.0000000000023
300.0000000000023
300.0000000000022
300.0000000000021
300.0000000000019
300.0000000000024
300.0000000000027
300.000000000003
300.000000000002
300.0000000000021
300.0000000000013
300.0000000000016
300.0000000000022
300.0000000000024
300.0000000000028
300.0000000000027
300.000000000003
300.0000000000035
300.0000000000028
300.0000000000031
300.0000000000026
300.0000000000034
300.0000000000034
300.000000000003
300.0000000000026
300.0000000000021
300.000000000002
300.0000000000021
300.0000000000026
300.0000000000024
300.0000000000024
300.000000000003
300.0000000000028
300.0000000000028
300.0000000000029
300.000000000002
300.0000000000021
300.0000000000022
300.0000000000028
300.0000000000026
300.0000000000026
300.0000000000026
300.0000000000022
300.0000000000013
300.0000000000018
300.0000000000024
300.0000000000023
300.0000000000026
300.0000000000026
300.0000000000028
300.0000000000026
300.0000000000022
300.0000000000021
300.0000000000027
300.0000000000028
300.0000000000031
300.0000000000031
300.0000000000028
300.000000000002
300.0000000000028
300.0000000000024
300.0000000000026
300.000000000002
300.0000000000026
300.0000000000024
300.0000000000018
300.000000000002
300.0000000000018
300.0000000000021
300.000000000002
300.0000000000022
300.0000000000021
300.0000000000018
300.0000000000019
300.0000000000021
300.0000000000019
300.0000000000018
300.0000000000024
300.0000000000028
300.0000000000028
300.0000000000028
300.0000000000026
300.0000000000025
300.0000000000026
300.000000000002
300.0000000000022
300.0000000000022
300.0000000000023
300.0000000000024
300.0000000000023
300.0000000000028
300.0000000000027
300.0000000000025
300.0000000000024
300.0000000000026
300.0000000000024
300.0000000000025
300.0000000000019
300.0000000000024
300.000000000002
300.0000000000024
300.0000000000015
300.0000000000018
300.0000000000015
300.0000000000013
300.0000000000016
300.0000000000016
300.000000000002
300.000000000002
300.000000000002
300.0000000000019
300.0000000000014
300.0000000000018
300.0000000000016
300.0000000000016
300.0000000000018
300.0000000000024
300.000000000002
300.0000000000025
300.0000000000023
300.0000000000023
300.0000000000021
300.000000000002
300.0000000000027
300.000000000003
300.0000000000036
300.0000000000034
300.000000000004
300.0000000000039
300.0000000000034
300.0000000000034
300.0000000000034
300.0000000000028
300.0000000000023
300.0000000000026
300.0000000000026
300.0000000000027
300.0000000000027
300.0000000000028
300.0000000000029
300.0000000000023
300.0000000000021
300.0000000000017
300.0000000000021
300.000000000002
300.0000000000018
300.0000000000024
300.0000000000023
300.0000000000026
300.0000000000023
300.0000000000021
300.000000000002
300.0000000000022
300.0000000000027
300.0000000000022
300.0000000000023
300.0000000000023
300.0000000000027
300.0000000000022
300.0000000000023
300.0000000000024
300.0000000000022
300.0000000000018
300.0000000000021
300.0000000000022
300.0000000000024
300.0000000000028
300.0000000000028
300.0000000000031
300.0000000000031
300.000000000003
300.0000000000023
300.0000000000023
300.0000000000024
300.0000000000016
300.0000000000021
300.0000000000028
300.0000000000029
300.0000000000028
300.000000000003
300.0000000000028
300.000000000003
300.0000000000026
300.0000000000027
300.0000000000027
300.0000000000028
300.0000000000031
300.0000000000028
300.000000000003
300.0000000000024
300.0000000000015
300.000000000002
300.0000000000023
300.0000000000029
300.0000000000032
300.0000000000026
300.000000000002
300.0000000000026
300.0000000000028
300.0000000000023
300.0000000000026
300.0000000000022
300.0000000000024
300.000000000002
300.0000000000024
300.0000000000021
300.000000000002
300.0000000000022
300.0000000000019
300.0000000000026
300.0000000000028
300.0000000000028
300.0000000000024
300.0000000000024
300.0000000000028
300.0000000000028
300.0000000000027
300.0000000000028
300.0000000000028
300.0000000000028
300.000000000003
300.0000000000028
300.0000000000022
300.0000000000022
300.0000000000016
300.0000000000014
300.0000000000017
300.0000000000021
300.0000000000023
300.0000000000025
300.0000000000028
300.0000000000032
300.0000000000031
300.0000000000028
300.0000000000028
300.0000000000028
300.0000000000031
300.0000000000028
300.0000000000028
300.0000000000032
300.000000000003
300.0000000000026
300.0000000000021
300.000000000002
300.000000000002
300.0000000000023
300.000000000002
300.0000000000021
300.000000000002
300.0000000000026
300.0000000000028
300.0000000000028
300.0000000000032
300.0000000000028
300.0000000000028
300.0000000000028
300.0000000000028
300.0000000000031
300.0000000000028
300.000000000003
300.0000000000024
300.0000000000028
300.0000000000024
300.0000000000028
300.0000000000028
300.0000000000031
300.0000000000028
300.0000000000028
300.0000000000028
300.000000000003
300.0000000000028
300.0000000000026
300.000000000003
300.0000000000028
300.0000000000022
300.0000000000018
300.0000000000021
300.0000000000028
300.0000000000028
300.0000000000028
300.0000000000028
300.0000000000028
300.0000000000025
300.0000000000021
300.0000000000018
300.0000000000021
300.000000000002
300.0000000000016
300.0000000000015
300.0000000000019
300.0000000000023
300.0000000000023
300.0000000000023
300.0000000000023
300.0000000000023
300.0000000000023
300.0000000000023
300.0000000000023
300.0000000000025
300.000000000002
300.0000000000023
300.0000000000023
300.0000000000025
300.000000000002
300.0000000000023
300.0000000000023
300.0000000000023
300.0000000000028
300.0000000000023
300.0000000000028
300.0000000000021
300.0000000000021
300.0000000000019
300.0000000000016
300.0000000000018
300.0000000000022
300.0000000000025
300.0000000000021
300.0000000000023
300.0000000000016
300.0000000000015
300.0000000000016
300.000000000002
300.0000000000017
300.0000000000021
300.000000000002
300.0000000000021
300.0000000000021
300.000000000002
300.0000000000021
)
;

boundaryField
{
    inlet
    {
        type            fixedValue;
        value           uniform 300;
    }
    outlet
    {
        type            characteristicVelocityInletOutletTemperature;
        UName           U;
        pName           p;
        TName           T;
        phiName         phi;
        rhoName         rho;
        U               (0 0 0);
        p               101325;
        T               300;
        value           uniform 300.0000000000021;
    }
    frontAndBack
    {
        type            empty;
    }
}


// ************************************************************************* //
