/*--------------------------------*- C++ -*----------------------------------*\
| =========                 |                                                 |
| \\      /  F ield         | OpenFOAM: The Open Source CFD Toolbox           |
|  \\    /   O peration     | Version:  v2012                                 |
|   \\  /    A nd           | Website:  www.openfoam.com                      |
|    \\/     M anipulation  |                                                 |
\*---------------------------------------------------------------------------*/
FoamFile
{
    version     2.0;
    format      ascii;
    class       volVectorField;
    location    "0.004";
    object      U;
}
// * * * * * * * * * * * * * * * * * * * * * * * * * * * * * * * * * * * * * //

dimensions      [0 1 -1 0 0 0 0];


internalField   nonuniform List<vector> 
1000
(
(-0.001026648727891816 0 0)
(-0.03286823733316543 0 0)
(-0.0410849559929261 0 0)
(-0.05633544366682617 0 0)
(-0.07034208098062987 0 0)
(-0.08347220669728157 0 0)
(-0.09470091340747103 0 0)
(-0.1043155577917905 0 0)
(-0.1127273959093265 0 0)
(-0.1186027090806654 0 0)
(-0.1202972789159005 0 0)
(-0.1201867769391562 0 0)
(-0.1195420788540548 0 0)
(-0.1172862580006515 0 0)
(-0.1127490284579294 0 0)
(-0.1056436312804368 0 0)
(-0.09622647069875868 0 0)
(-0.08495297623008394 0 0)
(-0.07221347216605326 0 0)
(-0.05826466617738118 0 0)
(-0.04329622912015725 0 0)
(-0.02751698483803329 0 0)
(-0.01119422043220117 0 0)
(0.005363665499430193 0 0)
(0.02183781578297762 0 0)
(0.03790212698952505 0 0)
(0.05323890868177672 0 0)
(0.06764353733802447 0 0)
(0.08115461922864362 0 0)
(0.09393824296424937 0 0)
(0.1056210472842578 0 0)
(0.1143202810970613 0 0)
(0.11796471769412 0 0)
(0.1183864566082665 0 0)
(0.1183413520420359 0 0)
(0.1177346570747188 0 0)
(0.1161650032271625 0 0)
(0.112919054744646 0 0)
(0.1074465960028665 0 0)
(0.09942715315848648 0 0)
(0.08890517935402772 0 0)
(0.07625097660618893 0 0)
(0.06200257264913364 0 0)
(0.04667981556324733 0 0)
(0.03067331043444935 0 0)
(0.0142476094419418 0 0)
(-0.002374937793158836 0 0)
(-0.01893442260640309 0 0)
(-0.03514301672390156 0 0)
(-0.05079063835240501 0 0)
(-0.06584602279142471 0 0)
(-0.08040919582981756 0 0)
(-0.09436808444229836 0 0)
(-0.1066103522009336 0 0)
(-0.114561110524332 0 0)
(-0.1171297099054496 0 0)
(-0.1173235361801979 0 0)
(-0.1171629260922564 0 0)
(-0.1166667023495241 0 0)
(-0.1152784442987478 0 0)
(-0.1125251335180845 0 0)
(-0.1078717997530809 0 0)
(-0.1009057667141189 0 0)
(-0.09143667815333052 0 0)
(-0.0795703847189579 0 0)
(-0.06568558916300923 0 0)
(-0.05032399399896414 0 0)
(-0.03405326581674894 0 0)
(-0.0173645768111869 0 0)
(-0.0006269021228627836 0 0)
(0.01591384259986297 0 0)
(0.03211653182486198 0 0)
(0.04793952709452105 0 0)
(0.06345176951830286 0 0)
(0.07875555375913651 0 0)
(0.09356811323876568 0 0)
(0.1063100566394183 0 0)
(0.1140400076950683 0 0)
(0.1162289291537071 0 0)
(0.1163425196368512 0 0)
(0.116280370067859 0 0)
(0.1158113640234458 0 0)
(0.1146599390036924 0 0)
(0.1123446531454813 0 0)
(0.1083972515820793 0 0)
(0.1023813062403632 0 0)
(0.09399181206724262 0 0)
(0.08313273512874038 0 0)
(0.06996617051734527 0 0)
(0.05490059005366767 0 0)
(0.03850685798437512 0 0)
(0.02139253098480274 0 0)
(0.004088553044800059 0 0)
(-0.01302424574372371 0 0)
(-0.02976044033494691 0 0)
(-0.04614886731160951 0 0)
(-0.0623727323465524 0 0)
(-0.07852803826360784 0 0)
(-0.09404882150305267 0 0)
(-0.1068357120866203 0 0)
(-0.1138684966375488 0 0)
(-0.1155718192053877 0 0)
(-0.1156534117344167 0 0)
(-0.1155184566808217 0 0)
(-0.1151022762610615 0 0)
(-0.1140138469004869 0 0)
(-0.1118880865013972 0 0)
(-0.1082910209243341 0 0)
(-0.1028103675517705 0 0)
(-0.09511724013116599 0 0)
(-0.08504379808253959 0 0)
(-0.07263777793901205 0 0)
(-0.05817778951902182 0 0)
(-0.0421422449041691 0 0)
(-0.02512837158799186 0 0)
(-0.007728767037577769 0 0)
(0.009599314182971237 0 0)
(0.02662093596756799 0 0)
(0.04333619437817303 0 0)
(0.05990796887186336 0 0)
(0.07643732641645372 0 0)
(0.09238293068300903 0 0)
(0.1056204713729703 0 0)
(0.1130119769546431 0 0)
(0.1148471231824761 0 0)
(0.1149227677001751 0 0)
(0.1148689578235096 0 0)
(0.1144994964090861 0 0)
(0.1135965121017844 0 0)
(0.1117861781471591 0 0)
(0.1086808912469579 0 0)
(0.1038796111986149 0 0)
(0.09702734178857617 0 0)
(0.08787384978021084 0 0)
(0.07633815621869373 0 0)
(0.06255656224727252 0 0)
(0.0468867161031231 0 0)
(0.02985523358641389 0 0)
(0.01205844654675128 0 0)
(-0.005965803839124798 0 0)
(-0.02386816269524858 0 0)
(-0.04156290833083733 0 0)
(-0.05916062099120783 0 0)
(-0.076650267702562 0 0)
(-0.09319602124866304 0 0)
(-0.106272152218897 0 0)
(-0.1129095290051622 0 0)
(-0.1143344207417709 0 0)
(-0.1143922509972462 0 0)
(-0.1142816757471888 0 0)
(-0.1139393111531737 0 0)
(-0.1130559092623737 0 0)
(-0.111333099408435 0 0)
(-0.1084074711544828 0 0)
(-0.1039077995451689 0 0)
(-0.09749270615927351 0 0)
(-0.08890713084450794 0 0)
(-0.07803530499766087 0 0)
(-0.06494203807152994 0 0)
(-0.04989273331677484 0 0)
(-0.03333279746050358 0 0)
(-0.01580844251783034 0 0)
(0.002159104735167659 0 0)
(0.02019874557369191 0 0)
(0.0381586095167232 0 0)
(0.05606678888394278 0 0)
(0.07388572526297239 0 0)
(0.0908653331229317 0 0)
(0.1046077705075224 0 0)
(0.1119767681298306 0 0)
(0.113721320122279 0 0)
(0.1137946455711295 0 0)
(0.113753425578501 0 0)
(0.1134599923070277 0 0)
(0.1127376273819854 0 0)
(0.1112787044848415 0 0)
(0.1087551980326338 0 0)
(0.1048101295819051 0 0)
(0.09909670169808603 0 0)
(0.09131852806317418 0 0)
(0.08128234151843942 0 0)
(0.06895066284560081 0 0)
(0.054473410269654 0 0)
(0.03818247004812406 0 0)
(0.02054373957079812 0 0)
(0.002063634145758217 0 0)
(-0.01683874765387931 0 0)
(-0.03593521883965705 0 0)
(-0.05515328957484748 0 0)
(-0.0742503520921404 0 0)
(-0.09204439454104094 0 0)
(-0.1056031390185128 0 0)
(-0.1120596321691531 0 0)
(-0.1133282568589492 0 0)
(-0.1133746885857123 0 0)
(-0.1132827424716526 0 0)
(-0.112998522808011 0 0)
(-0.1122669419021276 0 0)
(-0.110837939336128 0 0)
(-0.1084008737576381 0 0)
(-0.1046252599168201 0 0)
(-0.09918500741907975 0 0)
(-0.09179932573001666 0 0)
(-0.08227506541375165 0 0)
(-0.07054736885819191 0 0)
(-0.05671318415584602 0 0)
(-0.04104010938871221 0 0)
(-0.02392844357644331 0 0)
(-0.005824853693302527 0 0)
(0.01288406071313188 0 0)
(0.03195247960436001 0 0)
(0.0512630663070958 0 0)
(0.07058745406555204 0 0)
(0.08890250024906665 0 0)
(0.1034662582872371 0 0)
(0.1110497419449643 0 0)
(0.1127891885343886 0 0)
(0.1128660401511969 0 0)
(0.1128348319311214 0 0)
(0.1125980586007004 0 0)
(0.1120098897555632 0 0)
(0.1108114064243152 0 0)
(0.10872175241348 0 0)
(0.1054249052970147 0 0)
(0.1005968445978605 0 0)
(0.09393303462306286 0 0)
(0.08518863812147649 0 0)
(0.07422396956552695 0 0)
(0.06104014042452052 0 0)
(0.04579234091116439 0 0)
(0.0287739793658173 0 0)
(0.01036199452918113 0 0)
(-0.009077849916617739 0 0)
(-0.02927980622197793 0 0)
(-0.05004376808090859 0 0)
(-0.07089429303049261 0 0)
(-0.09025233038486923 0 0)
(-0.1046817000544194 0 0)
(-0.1112644581392994 0 0)
(-0.1124855575000446 0 0)
(-0.1125277029987002 0 0)
(-0.1124513896766544 0 0)
(-0.112213499780842 0 0)
(-0.1115987240302677 0 0)
(-0.1103940358983912 0 0)
(-0.1083309311457867 0 0)
(-0.105116053840251 0 0)
(-0.1004468227380185 0 0)
(-0.0940411306069913 0 0)
(-0.08566973311494951 0 0)
(-0.07519080274511063 0 0)
(-0.06258398069402697 0 0)
(-0.04796993763071538 0 0)
(-0.03159574874987513 0 0)
(-0.01378101587563756 0 0)
(0.005158261997312803 0 0)
(0.02497487908298834 0 0)
(0.04547840735034014 0 0)
(0.06629278637199593 0 0)
(0.08614218038656173 0 0)
(0.1019123289934841 0 0)
(0.1100947117621362 0 0)
(0.1119834657522583 0 0)
(0.1120775661838774 0 0)
(0.1120550479387402 0 0)
(0.1118637062708552 0 0)
(0.1113807122400664 0 0)
(0.1103840094757468 0 0)
(0.1086308809286691 0 0)
(0.1058417673315222 0 0)
(0.1017196007185168 0 0)
(0.09596818576815586 0 0)
(0.08832206773163978 0 0)
(0.07858281707994513 0 0)
(0.06665079653545496 0 0)
(0.05254360364924199 0 0)
(0.03639623555354197 0 0)
(0.01843293790100167 0 0)
(-0.001094704261491529 0 0)
(-0.02196703237917322 0 0)
(-0.04394287710457475 0 0)
(-0.06639879833714572 0 0)
(-0.08745334682131357 0 0)
(-0.1032005904426277 0 0)
(-0.1103947392015835 0 0)
(-0.1117440838779571 0 0)
(-0.111793382109805 0 0)
(-0.1117322163522979 0 0)
(-0.1115360819960242 0 0)
(-0.1110184718160643 0 0)
(-0.1099951065587017 0 0)
(-0.1082307606228576 0 0)
(-0.1054643735230684 0 0)
(-0.1014187344719637 0 0)
(-0.09582183490455431 0 0)
(-0.08843079888087517 0 0)
(-0.07905953021727956 0 0)
(-0.06760889417574407 0 0)
(-0.05408820627413805 0 0)
(-0.03861216859812675 0 0)
(-0.02136903408387397 0 0)
(-0.002571241332174237 0 0)
(0.0175883750840574 0 0)
(0.03891527081036786 0 0)
(0.06096982834551985 0 0)
(0.08234285662219648 0 0)
(0.09965885340643924 0 0)
(0.1089520492707902 0 0)
(0.1112415107163547 0 0)
(0.1113816635241459 0 0)
(0.1113676711906046 0 0)
(0.1112157724947622 0 0)
(0.110821376989766 0 0)
(0.1099896749870437 0 0)
(0.1085085461297466 0 0)
(0.1061294350385014 0 0)
(0.1025817935529051 0 0)
(0.09758490027868924 0 0)
(0.09086959199459835 0 0)
(0.08220578686609857 0 0)
(0.0714278445607245 0 0)
(0.05845241390940459 0 0)
(0.04328599088018533 0 0)
(0.02601325051301102 0 0)
(0.00676004491832863 0 0)
(-0.01433873157016707 0 0)
(-0.03706844041539462 0 0)
(-0.06077242841933006 0 0)
(-0.08346271338831565 0 0)
(-0.1009376963068238 0 0)
(-0.1093335227302209 0 0)
(-0.1110528588292819 0 0)
(-0.1111298575560036 0 0)
(-0.1110832039554039 0 0)
(-0.110927264541243 0 0)
(-0.1104959243304311 0 0)
(-0.1096275973320179 0 0)
(-0.1081128582117292 0 0)
(-0.1057175213964459 0 0)
(-0.1021882029860084 0 0)
(-0.09726755483820211 0 0)
(-0.09071136874813339 0 0)
(-0.08230993724981775 0 0)
(-0.07191311086013455 0 0)
(-0.05944981001290748 0 0)
(-0.04493010913258265 0 0)
(-0.02842791243228465 0 0)
(-0.01005188856045659 0 0)
(0.01008053253379548 0 0)
(0.03181542656345607 0 0)
(0.05473163522185748 0 0)
(0.07744108458600055 0 0)
(0.09651494666976089 0 0)
(0.1074636617156597 0 0)
(0.110503602245683 0 0)
(0.1107449896452491 0 0)
(0.110739568064423 0 0)
(0.11062266291733 0 0)
(0.1103062843801939 0 0)
(0.1096155320833313 0 0)
(0.1083628321087439 0 0)
(0.1063251344999074 0 0)
(0.1032556897703679 0 0)
(0.09889126233539368 0 0)
(0.09296775672627709 0 0)
(0.08524023457042772 0 0)
(0.07550174036521798 0 0)
(0.06359857146852282 0 0)
(0.04944083823056762 0 0)
(0.03300031902792411 0 0)
(0.01429014492167631 0 0)
(-0.006647980270149664 0 0)
(-0.02966619005717853 0 0)
(-0.05417268525066709 0 0)
(-0.07827693337371652 0 0)
(-0.09774136341726469 0 0)
(-0.1079440824197715 0 0)
(-0.1103641917156899 0 0)
(-0.1105106387565393 0 0)
(-0.1104768596383927 0 0)
(-0.1103590703306107 0 0)
(-0.1100063705387817 0 0)
(-0.1092754501580877 0 0)
(-0.1079768505192151 0 0)
(-0.1058982851238627 0 0)
(-0.1028071599447342 0 0)
(-0.09846151855822913 0 0)
(-0.092621953581839 0 0)
(-0.08506789230483275 0 0)
(-0.07561766439634812 0 0)
(-0.06414459219360921 0 0)
(-0.05058096634239959 0 0)
(-0.03491016178678867 0 0)
(-0.01715159367826352 0 0)
(0.002653464419424322 0 0)
(0.02441350139721443 0 0)
(0.04778212985583852 0 0)
(0.07152008711357444 0 0)
(0.09237665402551833 0 0)
(0.1054525985578898 0 0)
(0.1096961157810375 0 0)
(0.110144933982153 0 0)
(0.1101493118911207 0 0)
(0.1100629022774479 0 0)
(0.1098158341966922 0 0)
(0.1092482879880408 0 0)
(0.1081927238519393 0 0)
(0.1064467481170089 0 0)
(0.1037840393945096 0 0)
(0.09995833437958354 0 0)
(0.0947146767255142 0 0)
(0.08780340492734144 0 0)
(0.07899339487690546 0 0)
(0.06808451580931445 0 0)
(0.05491888171229616 0 0)
(0.03938347521191545 0 0)
(0.0214000308165361 0 0)
(0.0009243307643660886 0 0)
(-0.02197875350653137 0 0)
(-0.04684160114892576 0 0)
(-0.07201968107261349 0 0)
(-0.09351413237087598 0 0)
(-0.1060506683641151 0 0)
(-0.1096172989638848 0 0)
(-0.109918973529729 0 0)
(-0.109896654111527 0 0)
(-0.1098135001945213 0 0)
(-0.1095320519925954 0 0)
(-0.1089247051246863 0 0)
(-0.107817424197282 0 0)
(-0.106015840302871 0 0)
(-0.1033048931623782 0 0)
(-0.0994569640379161 0 0)
(-0.09424008280146008 0 0)
(-0.0874304278785895 0 0)
(-0.07882805011755951 0 0)
(-0.06826932494065219 0 0)
(-0.055631359395599 0 0)
(-0.04083017024489517 0 0)
(-0.02381448288172545 0 0)
(-0.00455816303738937 0 0)
(0.01691472884900916 0 0)
(0.04035853924458836 0 0)
(0.06475627495575841 0 0)
(0.08722520669404524 0 0)
(0.1027297260953344 0 0)
(0.1087114480841816 0 0)
(0.1095635881081464 0 0)
(0.1095830780037998 0 0)
(0.1095230672399218 0 0)
(0.10933685372846 0 0)
(0.1088775309104814 0 0)
(0.1079946427040126 0 0)
(0.1065024857100581 0 0)
(0.1041920402408189 0 0)
(0.1008325668169504 0 0)
(0.096179795985479 0 0)
(0.08998526660843954 0 0)
(0.08200527249799679 0 0)
(0.07201092987928356 0 0)
(0.05979884246240402 0 0)
(0.04519541835261408 0 0)
(0.0280526156508995 0 0)
(0.008254189836765444 0 0)
(-0.01421749305800806 0 0)
(-0.0390406606429755 0 0)
(-0.0648912511122753 0 0)
(-0.08823023846602637 0 0)
(-0.1034525439551054 0 0)
(-0.1087185118669878 0 0)
(-0.1093406221785609 0 0)
(-0.1093330246986207 0 0)
(-0.1092799861211429 0 0)
(-0.1090615646488983 0 0)
(-0.1085652300264944 0 0)
(-0.1076289863571096 0 0)
(-0.1060733483665253 0 0)
(-0.1036979365940455 0 0)
(-0.1002878455333792 0 0)
(-0.09561939101313484 0 0)
(-0.08946992040207863 0 0)
(-0.08162990260949787 0 0)
(-0.07191210929653476 0 0)
(-0.0601559812782469 0 0)
(-0.04622960957393224 0 0)
(-0.03002848588595289 0 0)
(-0.01147102030591465 0 0)
(0.00948110033003652 0 0)
(0.03268548137944854 0 0)
(0.0573689908367775 0 0)
(0.08112842741425549 0 0)
(0.09912874496045686 0 0)
(0.1073971612404772 0 0)
(0.1089710001385106 0 0)
(0.1090347809451529 0 0)
(0.1089953664499332 0 0)
(0.1088616627984029 0 0)
(0.1084967430236746 0 0)
(0.1077658547578152 0 0)
(0.1064969227576051 0 0)
(0.1044956591753562 0 0)
(0.1015452617796991 0 0)
(0.09741245266932061 0 0)
(0.09185332027466307 0 0)
(0.08461921770473756 0 0)
(0.07546499463041302 0 0)
(0.06415836836903793 0 0)
(0.05048415293312098 0 0)
(0.03424330890601576 0 0)
(0.01526294239357443 0 0)
(-0.006547464622693684 0 0)
(-0.03100769818183819 0 0)
(-0.05712583467692421 0 0)
(-0.08195050514331559 0 0)
(-0.09996310412600021 0 0)
(-0.1075240812758128 0 0)
(-0.1087541755077017 0 0)
(-0.1087821550022011 0 0)
(-0.108752721130198 0 0)
(-0.108588547174665 0 0)
(-0.1081908388749019 0 0)
(-0.1074075867514912 0 0)
(-0.1060720234657232 0 0)
(-0.1039960516885587 0 0)
(-0.1009759007436371 0 0)
(-0.09679618218691985 0 0)
(-0.09123762459845185 0 0)
(-0.08408616320565154 0 0)
(-0.07513956966841577 0 0)
(-0.06421150207168147 0 0)
(-0.05113518083191106 0 0)
(-0.03576430306406075 0 0)
(-0.01797026599214016 0 0)
(0.002340876531970055 0 0)
(0.02511841885328711 0 0)
(0.04980262477597988 0 0)
(0.07444354785059311 0 0)
(0.09460717472864993 0 0)
(0.1053374076502656 0 0)
(0.1079379927078718 0 0)
(0.1081027177955312 0 0)
(0.1080740788637504 0 0)
(0.1079666513720711 0 0)
(0.1076427066276685 0 0)
(0.10696585484202 0 0)
(0.1057585326536414 0 0)
(0.1038201556264126 0 0)
(0.1009260468957969 0 0)
(0.09683302341111044 0 0)
(0.09128753635172498 0 0)
(0.08403931876179689 0 0)
(0.07486447632525341 0 0)
(0.06361005179763851 0 0)
(0.0502966497864131 0 0)
(0.03537547934256017 0 0)
(0.02028902838937342 0 0)
(0.008040846669513086 0 0)
(0.00166054910471483 0 0)
(0.0001208333278687139 0 0)
(2.005098466486917e-06 0 0)
(5.035524882887782e-09 0 0)
(-2.672158246281446e-12 0 0)
(-3.708398518847759e-12 0 0)
(-2.521868719339886e-12 0 0)
(-1.707316322934417e-12 0 0)
(-1.798497342119315e-12 0 0)
(-8.405834613134493e-13 0 0)
(4.29387604097969e-13 0 0)
(1.263873121546953e-12 0 0)
(1.312582807374085e-12 0 0)
(1.242809689263401e-13 0 0)
(3.963831649167189e-13 0 0)
(1.36825165519218e-12 0 0)
(8.388423120690426e-13 0 0)
(-7.406804056570699e-13 0 0)
(-2.01333494984773e-12 0 0)
(-3.638917472559603e-12 0 0)
(-5.004542751211327e-12 0 0)
(-5.220108834500281e-12 0 0)
(-5.986036475787853e-12 0 0)
(-7.19778805007928e-12 0 0)
(-8.206178566255866e-12 0 0)
(-9.430236780194397e-12 0 0)
(-1.054468623253604e-11 0 0)
(-1.193209144531697e-11 0 0)
(-1.386015159473813e-11 0 0)
(-1.463377143766465e-11 0 0)
(-1.48755171044802e-11 0 0)
(-1.499298691125028e-11 0 0)
(-1.3700257791373e-11 0 0)
(-1.209373703319962e-11 0 0)
(-1.068115631714352e-11 0 0)
(-9.812698606020603e-12 0 0)
(-9.277166879829721e-12 0 0)
(-8.114905289393925e-12 0 0)
(-6.521572501280819e-12 0 0)
(-4.851614806999385e-12 0 0)
(-3.630142042612603e-12 0 0)
(-2.46349253526271e-12 0 0)
(-1.217004770573151e-12 0 0)
(2.259665058489902e-13 0 0)
(1.075311843699445e-12 0 0)
(1.812499899220454e-12 0 0)
(3.048552740284494e-12 0 0)
(4.156830099083295e-12 0 0)
(3.764008892937476e-12 0 0)
(3.620692162840624e-12 0 0)
(5.160219447021087e-12 0 0)
(6.626730372902239e-12 0 0)
(7.390830901161088e-12 0 0)
(8.576513842125968e-12 0 0)
(9.241526183083723e-12 0 0)
(7.912370652031556e-12 0 0)
(6.036400541340455e-12 0 0)
(5.71740568207344e-12 0 0)
(6.41106168977624e-12 0 0)
(7.53159402800977e-12 0 0)
(8.360914035920312e-12 0 0)
(7.875003852909993e-12 0 0)
(7.34742217080969e-12 0 0)
(6.602407851784213e-12 0 0)
(6.756233427609291e-12 0 0)
(6.676232398920959e-12 0 0)
(6.203295965192605e-12 0 0)
(6.039916352240861e-12 0 0)
(6.059059531768237e-12 0 0)
(6.640592858649316e-12 0 0)
(6.162483986172419e-12 0 0)
(5.550518966586996e-12 0 0)
(5.088033188949086e-12 0 0)
(4.532528299038122e-12 0 0)
(5.190642855430165e-12 0 0)
(6.379857301957919e-12 0 0)
(6.626702611572182e-12 0 0)
(6.984806822041233e-12 0 0)
(6.125858561115856e-12 0 0)
(5.559142833820432e-12 0 0)
(5.461829587241311e-12 0 0)
(5.648727255674148e-12 0 0)
(6.529367512051678e-12 0 0)
(6.797959657138968e-12 0 0)
(6.333698412571379e-12 0 0)
(4.396047874067828e-12 0 0)
(3.614553601741799e-12 0 0)
(3.664143076214603e-12 0 0)
(2.740176120322477e-12 0 0)
(2.464591875224586e-12 0 0)
(3.655376839235709e-12 0 0)
(5.02977938130161e-12 0 0)
(6.61015433623388e-12 0 0)
(7.600284088173308e-12 0 0)
(8.685170127172356e-12 0 0)
(8.392255823763551e-12 0 0)
(8.265403762446973e-12 0 0)
(8.912200235315738e-12 0 0)
(9.015588309732909e-12 0 0)
(9.633643297708335e-12 0 0)
(9.106831690526951e-12 0 0)
(7.889834659069797e-12 0 0)
(7.043936379254107e-12 0 0)
(7.457623165219235e-12 0 0)
(7.2238683430407e-12 0 0)
(5.849559881659646e-12 0 0)
(4.169993463573458e-12 0 0)
(2.542678910896752e-12 0 0)
(1.351713833797709e-12 0 0)
(-1.356992105040166e-13 0 0)
(-2.179396418546287e-12 0 0)
(-3.694594918510773e-12 0 0)
(-4.350031482660163e-12 0 0)
(-4.826326167900034e-12 0 0)
(-6.03459973336295e-12 0 0)
(-6.204238939203541e-12 0 0)
(-5.663594975500349e-12 0 0)
(-6.812714317900525e-12 0 0)
(-8.001876638984929e-12 0 0)
(-8.831223901732484e-12 0 0)
(-8.694739212956855e-12 0 0)
(-7.540368177156273e-12 0 0)
(-5.598398765143019e-12 0 0)
(-4.499527465107679e-12 0 0)
(-3.920502939667667e-12 0 0)
(-2.182824250896949e-12 0 0)
(-1.104037793298399e-12 0 0)
(-6.711236857377122e-13 0 0)
(9.209084163492145e-14 0 0)
(1.672524838040635e-12 0 0)
(3.118224174355995e-12 0 0)
(3.140849764216555e-12 0 0)
(3.678943361950049e-12 0 0)
(3.445129963681243e-12 0 0)
(2.614945469639748e-12 0 0)
(4.061388743768901e-12 0 0)
(5.258395371785507e-12 0 0)
(5.758290486215622e-12 0 0)
(5.40187635880314e-12 0 0)
(3.893595451217594e-12 0 0)
(2.030685687869787e-12 0 0)
(6.146332609378257e-13 0 0)
(-4.546968752927952e-13 0 0)
(-1.285744257023991e-12 0 0)
(-2.015901124602468e-12 0 0)
(-3.210310831651934e-12 0 0)
(-3.891861241010149e-12 0 0)
(-3.810161862221175e-12 0 0)
(-2.607940753715139e-12 0 0)
(-1.673425128408976e-12 0 0)
(-2.36357830605176e-12 0 0)
(-2.403579278323551e-12 0 0)
(-1.135268302559471e-12 0 0)
(-1.955388423402448e-13 0 0)
(5.424925600311827e-13 0 0)
(1.065788303924529e-12 0 0)
(6.337342014038076e-13 0 0)
(2.068695952699109e-13 0 0)
(1.747294080446653e-12 0 0)
(3.249516246868801e-12 0 0)
(3.876248597064084e-12 0 0)
(4.156112041022499e-12 0 0)
(5.104488555281203e-12 0 0)
(5.335778487578726e-12 0 0)
(4.695147807653519e-12 0 0)
(4.821180186750568e-12 0 0)
(4.897672621585742e-12 0 0)
(4.354294389720865e-12 0 0)
(3.224254104778071e-12 0 0)
(2.06638832107956e-12 0 0)
(1.04058533900929e-12 0 0)
(-9.353471539365493e-13 0 0)
(-1.682140740255949e-12 0 0)
(-1.547441192756855e-12 0 0)
(-2.449748510311038e-12 0 0)
(-4.044834534969176e-12 0 0)
(-4.549067943450662e-12 0 0)
(-3.644152166810792e-12 0 0)
(-4.189180191935631e-12 0 0)
(-5.342667982006994e-12 0 0)
(-6.227630782315659e-12 0 0)
(-6.627532492583683e-12 0 0)
(-5.727843092129695e-12 0 0)
(-4.203123296100423e-12 0 0)
(-2.933051995783042e-12 0 0)
(-2.555796798382125e-12 0 0)
(-2.540118794697091e-12 0 0)
(-3.301577538886591e-12 0 0)
(-2.992138217629643e-12 0 0)
(-1.663010814186751e-12 0 0)
(-9.215356887783009e-13 0 0)
(1.277052380076602e-13 0 0)
(-9.309145401586774e-14 0 0)
(-1.103144352179113e-12 0 0)
(-2.485277406692207e-12 0 0)
(-3.658017521481334e-12 0 0)
(-3.497216639833658e-12 0 0)
(-2.029848342584628e-12 0 0)
(-2.343690812100533e-12 0 0)
(-3.857128554282122e-12 0 0)
(-5.437531023529595e-12 0 0)
(-6.305978620094689e-12 0 0)
(-6.933551112331298e-12 0 0)
(-8.434797110661707e-12 0 0)
(-1.001165123630635e-11 0 0)
(-1.147474274813234e-11 0 0)
(-1.195730391911246e-11 0 0)
(-1.148791018817438e-11 0 0)
(-1.031863449058269e-11 0 0)
(-8.56169335109485e-12 0 0)
(-7.839316349126457e-12 0 0)
(-8.979894448567472e-12 0 0)
(-1.066114624170806e-11 0 0)
(-1.097928520054217e-11 0 0)
(-1.033775300211879e-11 0 0)
(-9.331077266374641e-12 0 0)
(-7.462050683453923e-12 0 0)
(-6.03643226549358e-12 0 0)
(-4.859369220518142e-12 0 0)
(-4.033474286800207e-12 0 0)
(-3.303274882204867e-12 0 0)
(-2.040267843235506e-12 0 0)
(-5.877721353043459e-13 0 0)
(3.606754391134726e-13 0 0)
(8.927841946516978e-13 0 0)
(2.061178102814973e-12 0 0)
(3.235523220632942e-12 0 0)
(4.89072572088652e-12 0 0)
(4.658695798959907e-12 0 0)
(3.176542703370257e-12 0 0)
(2.07854648994646e-12 0 0)
(1.752548495501768e-12 0 0)
(2.249792848010659e-12 0 0)
(1.767330986970203e-12 0 0)
(1.477020164226038e-12 0 0)
(2.574905499764153e-12 0 0)
(3.333834244573086e-12 0 0)
(2.305336904768501e-12 0 0)
(8.847700457123464e-13 0 0)
(-9.458974686856241e-13 0 0)
(-2.587936965797755e-12 0 0)
(-3.443362290801147e-12 0 0)
(-4.582986071491093e-12 0 0)
(-4.803718572474984e-12 0 0)
(-4.355239028245672e-12 0 0)
(-3.883268232243109e-12 0 0)
(-5.259341235562209e-12 0 0)
(-5.924301808754232e-12 0 0)
(-5.493997017925383e-12 0 0)
(-5.657373209875576e-12 0 0)
(-4.960114095066256e-12 0 0)
(-3.841390273089943e-12 0 0)
(-2.837416787130352e-12 0 0)
(-1.941988134603728e-12 0 0)
(-1.284748716993911e-12 0 0)
(-9.935820744638111e-13 0 0)
(8.259142460790622e-14 0 0)
(1.582108372392432e-12 0 0)
(2.111503828550101e-12 0 0)
(2.822618012093159e-12 0 0)
(4.105708942253133e-12 0 0)
(5.66869060034026e-12 0 0)
(7.40113806276349e-12 0 0)
(8.305229058044031e-12 0 0)
(7.25603397558623e-12 0 0)
(6.350255363997061e-12 0 0)
(6.525799575275182e-12 0 0)
(5.680841540169952e-12 0 0)
(5.433999365963034e-12 0 0)
(4.950643077819474e-12 0 0)
(4.139604779204735e-12 0 0)
(3.089493772698118e-12 0 0)
(1.716880972727715e-12 0 0)
(2.068068779722198e-12 0 0)
(2.823521871567775e-12 0 0)
(1.855090773702632e-12 0 0)
(5.824155140401678e-13 0 0)
(-5.50297708673996e-13 0 0)
(-2.392306322933876e-12 0 0)
(-1.933238703960403e-12 0 0)
(-5.875423681592646e-13 0 0)
(-2.11198766932627e-13 0 0)
(-1.80841246283661e-13 0 0)
(3.772918874804403e-13 0 0)
(1.690833992090435e-12 0 0)
(3.043457530725753e-12 0 0)
(4.363065924290149e-12 0 0)
(3.841455709191918e-12 0 0)
(2.729658064363142e-12 0 0)
(3.614576649572624e-12 0 0)
(4.030060632977435e-12 0 0)
(2.952078099772306e-12 0 0)
(2.451396236073709e-12 0 0)
(3.251143159593635e-12 0 0)
(3.936143342642746e-12 0 0)
(3.011245345375098e-12 0 0)
(1.746434745016651e-12 0 0)
(2.574928298457063e-12 0 0)
(2.96522406704802e-12 0 0)
(2.911297430948674e-12 0 0)
(2.695677920243495e-12 0 0)
(2.088060661533315e-12 0 0)
(2.53925059524051e-12 0 0)
(1.978584600751096e-12 0 0)
(1.38574509116535e-12 0 0)
(1.578685689498578e-12 0 0)
(6.484805459262835e-13 0 0)
(1.187421663774206e-12 0 0)
(2.287956410970336e-12 0 0)
(1.436045777600893e-12 0 0)
(4.841810994055166e-13 0 0)
(1.368300701638522e-12 0 0)
(2.24458536127636e-12 0 0)
(3.3034134046542e-12 0 0)
(3.748416452231382e-12 0 0)
(3.89440834580084e-12 0 0)
(4.85850358582594e-12 0 0)
(5.89475064962589e-12 0 0)
(6.783163570310468e-12 0 0)
(7.245599931995045e-12 0 0)
(8.018404932672353e-12 0 0)
(7.609814569177075e-12 0 0)
(7.507268047008886e-12 0 0)
(9.088493055316247e-12 0 0)
(9.900424790065759e-12 0 0)
(8.900783589882464e-12 0 0)
(6.918828232213941e-12 0 0)
(5.928711658154373e-12 0 0)
(5.684409214425278e-12 0 0)
(6.369393924757645e-12 0 0)
(7.114367517131474e-12 0 0)
(6.317267288407334e-12 0 0)
(6.107776990243633e-12 0 0)
(6.857944082737696e-12 0 0)
(7.968032391283275e-12 0 0)
(7.550731900162824e-12 0 0)
(6.504087201648262e-12 0 0)
(5.751304299998266e-12 0 0)
(5.421044634524683e-12 0 0)
(5.13059683919137e-12 0 0)
(5.168783426955892e-12 0 0)
(4.834139850972762e-12 0 0)
(3.791056813448327e-12 0 0)
(3.377297423250236e-12 0 0)
(4.594317724375223e-12 0 0)
(6.18686641681111e-12 0 0)
(6.635378281869115e-12 0 0)
(6.682326704518001e-12 0 0)
(6.478059823410742e-12 0 0)
(5.71137762113027e-12 0 0)
(5.219384401794297e-12 0 0)
(5.632314658443462e-12 0 0)
(6.549432089701691e-12 0 0)
(7.591671758042999e-12 0 0)
(8.586117968694748e-12 0 0)
(7.711609798673818e-12 0 0)
(6.121666088460773e-12 0 0)
(4.440426464133741e-12 0 0)
(2.893044228088047e-12 0 0)
(1.635990444648833e-12 0 0)
(1.555921368180288e-13 0 0)
(-1.018853008705924e-12 0 0)
(-1.378818489023767e-12 0 0)
(-1.011944395877935e-12 0 0)
(-1.280556788740621e-12 0 0)
(-2.076816516848187e-12 0 0)
(-2.651401765743037e-12 0 0)
(-2.195884480684918e-12 0 0)
(-1.390036195602471e-12 0 0)
(-6.954564902001316e-13 0 0)
(-6.823780117161334e-13 0 0)
(-7.389080144702154e-13 0 0)
(-6.259080999264226e-13 0 0)
(-1.729901831957053e-12 0 0)
(-2.791340944421828e-12 0 0)
(-3.371183076078961e-12 0 0)
(-2.934766849221671e-12 0 0)
(-1.815984874537313e-12 0 0)
(-1.943805211100533e-12 0 0)
(-1.675157098599883e-12 0 0)
(-2.920970874966009e-13 0 0)
(9.962179329076013e-13 0 0)
(4.407346077916755e-13 0 0)
(3.05170431258955e-13 0 0)
(3.01694816892108e-13 0 0)
(-6.50231100931077e-13 0 0)
(-8.47568168364381e-13 0 0)
(-1.734775467548655e-14 0 0)
(-9.057335435279609e-13 0 0)
(-2.273197299848776e-12 0 0)
(-2.189713255578474e-12 0 0)
(-2.565257875697302e-12 0 0)
(-3.271147034084649e-12 0 0)
(-4.057002029594498e-12 0 0)
(-4.611632993263691e-12 0 0)
(-4.327405194149155e-12 0 0)
(-4.179640935300522e-12 0 0)
(-4.735970587376897e-12 0 0)
(-4.926394801977119e-12 0 0)
(-4.100540866706035e-12 0 0)
(-2.874849735395602e-12 0 0)
(-1.995982061156955e-12 0 0)
(-1.181440343681994e-12 0 0)
(-7.858788598443873e-13 0 0)
(-1.389153845641362e-12 0 0)
(-8.980010451632033e-13 0 0)
(1.912438190307186e-13 0 0)
(1.521126565438219e-13 0 0)
(3.790299802523714e-13 0 0)
(1.359601013826895e-12 0 0)
(1.97246298940386e-12 0 0)
(2.639201475979959e-12 0 0)
(2.580960480130133e-12 0 0)
(1.544795470136787e-12 0 0)
(8.24097995297488e-13 0 0)
(1.552549820592536e-12 0 0)
(1.763792970582197e-12 0 0)
(8.215095968112532e-13 0 0)
(-4.763651871013302e-13 0 0)
(-1.969838365371108e-12 0 0)
(-2.918230354046189e-12 0 0)
(-3.639726954396326e-12 0 0)
(-3.201587749682484e-12 0 0)
(-1.870736465141018e-12 0 0)
(-1.480404806669263e-12 0 0)
(-6.615408102175044e-13 0 0)
(1.188329244218767e-12 0 0)
(2.813925472683458e-12 0 0)
(4.169171975312693e-12 0 0)
(5.912974434469087e-12 0 0)
(6.803149795151233e-12 0 0)
(7.41427716183375e-12 0 0)
(7.987069034271704e-12 0 0)
(8.675598623034379e-12 0 0)
(9.910037871368858e-12 0 0)
(1.153822957777776e-11 0 0)
(1.140956001455561e-11 0 0)
(1.105927831028438e-11 0 0)
(1.14852621086227e-11 0 0)
(1.103840410647801e-11 0 0)
(1.046208738754293e-11 0 0)
(9.442381318094122e-12 0 0)
(8.716498834125037e-12 0 0)
)
;

boundaryField
{
    inlet
    {
        type            zeroGradient;
    }
    outlet
    {
        type            characteristicPressureInletOutletVelocity;
        UName           U;
        pName           p;
        TName           T;
        phiName         phi;
        rhoName         rho;
        U               (0 0 0);
        p               101325;
        T               300;
        value           uniform (8.716498834125037e-12 0 0);
    }
    frontAndBack
    {
        type            empty;
    }
}


// ************************************************************************* //
