/*--------------------------------*- C++ -*----------------------------------*\
| =========                 |                                                 |
| \\      /  F ield         | OpenFOAM: The Open Source CFD Toolbox           |
|  \\    /   O peration     | Version:  v2012                                 |
|   \\  /    A nd           | Website:  www.openfoam.com                      |
|    \\/     M anipulation  |                                                 |
\*---------------------------------------------------------------------------*/
FoamFile
{
    version     2.0;
    format      ascii;
    class       volVectorField;
    location    "0.004";
    object      UMean;
}
// * * * * * * * * * * * * * * * * * * * * * * * * * * * * * * * * * * * * * //

dimensions      [0 1 -1 0 0 0 0];


internalField   nonuniform List<vector> 
1000
(
(-6.096222643275773e-05 0 0)
(3.834579651587545e-05 0 0)
(8.101123320375814e-05 0 0)
(0.0001756243916871706 0 0)
(0.0002862244655728763 0 0)
(0.0004212269305371797 0 0)
(0.0005811577600595985 0 0)
(0.0007582866287185696 0 0)
(0.0009547997954959913 0 0)
(0.001163379161496886 0 0)
(0.001379604454798275 0 0)
(0.001595782946244178 0 0)
(0.001811945356639799 0 0)
(0.002024620025870778 0 0)
(0.00223211770876237 0 0)
(0.002428270415892362 0 0)
(0.002610511823729073 0 0)
(0.002773402920814824 0 0)
(0.002915614871416488 0 0)
(0.003033087501677913 0 0)
(0.003125344323106426 0 0)
(0.003189213015218144 0 0)
(0.003224942819331926 0 0)
(0.003230381050100475 0 0)
(0.003206748592789009 0 0)
(0.003153162424605672 0 0)
(0.003071980636178817 0 0)
(0.002963427510703115 0 0)
(0.002830331949920388 0 0)
(0.002672909671076831 0 0)
(0.002493792300965749 0 0)
(0.002295187737279671 0 0)
(0.002085659617366677 0 0)
(0.001872420375243022 0 0)
(0.001659626938991564 0 0)
(0.00144717165643168 0 0)
(0.001236774166656099 0 0)
(0.00103063537886739 0 0)
(0.0008323232728648404 0 0)
(0.000646058588307542 0 0)
(0.0004764214067049335 0 0)
(0.0003275429305996696 0 0)
(0.000202787325630847 0 0)
(0.0001045414989882905 0 0)
(3.442037266278173e-05 0 0)
(-6.540028255314433e-06 0 0)
(-1.777686584444374e-05 0 0)
(8.409954160026636e-07 0 0)
(4.894594161485004e-05 0 0)
(0.0001257470847893912 0 0)
(0.0002301650239598745 0 0)
(0.00036123672541941 0 0)
(0.0005180976977232747 0 0)
(0.000699077376679263 0 0)
(0.0008989271963495998 0 0)
(0.00110817169485581 0 0)
(0.001319268039264726 0 0)
(0.001530250694912911 0 0)
(0.001740816237744895 0 0)
(0.001949392836802406 0 0)
(0.002154596328335892 0 0)
(0.002352849004126025 0 0)
(0.00254102290809013 0 0)
(0.002714145733811606 0 0)
(0.002868459543418019 0 0)
(0.002999343824827823 0 0)
(0.003104283992302743 0 0)
(0.003180502276632983 0 0)
(0.003227427800355469 0 0)
(0.003243995214351885 0 0)
(0.003230924477828802 0 0)
(0.003188093345275296 0 0)
(0.003116780837242623 0 0)
(0.003017001187647949 0 0)
(0.002889723019079198 0 0)
(0.002734813443643294 0 0)
(0.002554887096712874 0 0)
(0.00235567783058445 0 0)
(0.002148007059736052 0 0)
(0.001938470808310612 0 0)
(0.001729261173694178 0 0)
(0.001520430959920483 0 0)
(0.001313076147771238 0 0)
(0.001108812772028477 0 0)
(0.0009101433465868338 0 0)
(0.0007203761759883979 0 0)
(0.0005435078101835459 0 0)
(0.0003838852755497925 0 0)
(0.0002458152693772721 0 0)
(0.0001330687893389813 0 0)
(4.85766143778813e-05 0 0)
(-5.813578894615726e-06 0 0)
(-2.926556506378085e-05 0 0)
(-2.179840247364281e-05 0 0)
(1.609637753518148e-05 0 0)
(8.378237368685554e-05 0 0)
(0.0001808343706103981 0 0)
(0.0003070793258140176 0 0)
(0.0004621154838271115 0 0)
(0.0006432790045768762 0 0)
(0.0008428771164925177 0 0)
(0.001049941089632092 0 0)
(0.001258097880883244 0 0)
(0.001466094255982537 0 0)
(0.001673748306874051 0 0)
(0.001879830073368274 0 0)
(0.002083283372049549 0 0)
(0.002281382724596716 0 0)
(0.002471599046033773 0 0)
(0.002649781219710397 0 0)
(0.002812276918740404 0 0)
(0.002954368245517486 0 0)
(0.003072570496687912 0 0)
(0.003163144429639287 0 0)
(0.003224261151954691 0 0)
(0.003254217592462284 0 0)
(0.00325318317913769 0 0)
(0.003221048047328433 0 0)
(0.003158837320206474 0 0)
(0.003066469346695103 0 0)
(0.002944453542505056 0 0)
(0.002792677513354295 0 0)
(0.002614256829778688 0 0)
(0.002416530092756487 0 0)
(0.002211068874095617 0 0)
(0.002004127798217634 0 0)
(0.001797452745292202 0 0)
(0.001591069885047756 0 0)
(0.001385863372138456 0 0)
(0.001183054750978877 0 0)
(0.0009846545407443874 0 0)
(0.000793295675953781 0 0)
(0.0006123821754827202 0 0)
(0.0004457825395181585 0 0)
(0.000297750141360668 0 0)
(0.0001724017136153092 0 0)
(7.351633244181443e-05 0 0)
(3.986099152321132e-06 0 0)
(-3.422576188927494e-05 0 0)
(-4.028167640165614e-05 0 0)
(-1.403949597867884e-05 0 0)
(4.417954872793955e-05 0 0)
(0.0001341897889334431 0 0)
(0.0002558434030116063 0 0)
(0.0004085006885684608 0 0)
(0.0005885156473954819 0 0)
(0.0007867850399183663 0 0)
(0.0009917965521383707 0 0)
(0.001197702209190353 0 0)
(0.001403455137742444 0 0)
(0.00160893713929388 0 0)
(0.001813133801562248 0 0)
(0.002015203687957177 0 0)
(0.002212922428228189 0 0)
(0.002404199500410556 0 0)
(0.002585508538379066 0 0)
(0.002753578638169303 0 0)
(0.002904001480780837 0 0)
(0.003033111536779955 0 0)
(0.003136752855789279 0 0)
(0.003212197173679684 0 0)
(0.003256818314467612 0 0)
(0.003269731696562751 0 0)
(0.003250095265076044 0 0)
(0.003198319878900624 0 0)
(0.003114100618221755 0 0)
(0.002997826970972656 0 0)
(0.002849706306972284 0 0)
(0.00267347558604969 0 0)
(0.002477566034166027 0 0)
(0.002274057516734805 0 0)
(0.002069171557026145 0 0)
(0.001864506552497435 0 0)
(0.001660060103893986 0 0)
(0.001456562948844175 0 0)
(0.00125498270747769 0 0)
(0.001056984267139753 0 0)
(0.000864732870055028 0 0)
(0.0006811460181187943 0 0)
(0.0005096082690714801 0 0)
(0.0003540593587746963 0 0)
(0.0002185340738893823 0 0)
(0.0001070922917958119 0 0)
(2.325215847584563e-05 0 0)
(-3.008073942159517e-05 0 0)
(-5.100363897298351e-05 0 0)
(-3.831653334608356e-05 0 0)
(8.495573156896775e-06 0 0)
(8.981987382705499e-05 0 0)
(0.0002057125855269303 0 0)
(0.0003552443575141948 0 0)
(0.0005337355004136959 0 0)
(0.0007306777182114811 0 0)
(0.0009339735597247237 0 0)
(0.001138054695934973 0 0)
(0.001342000669789183 0 0)
(0.001545729397692012 0 0)
(0.001748384949090449 0 0)
(0.001949286184380367 0 0)
(0.002146561861789608 0 0)
(0.002338455376913877 0 0)
(0.002521930477580583 0 0)
(0.002694092589679726 0 0)
(0.002850924541811334 0 0)
(0.002988860244614323 0 0)
(0.003103680210676583 0 0)
(0.003192175862539321 0 0)
(0.003251049080888537 0 0)
(0.003278445618492088 0 0)
(0.00327259950973367 0 0)
(0.003232989947254589 0 0)
(0.003158701621148021 0 0)
(0.00304971044379405 0 0)
(0.002906308666028009 0 0)
(0.002732783994652209 0 0)
(0.002538690081518124 0 0)
(0.002336843691086737 0 0)
(0.002133650799989918 0 0)
(0.001930642481512439 0 0)
(0.001727797711020752 0 0)
(0.001525732160669634 0 0)
(0.001325229404130881 0 0)
(0.001127690695329207 0 0)
(0.0009349294995408686 0 0)
(0.0007494608736141887 0 0)
(0.0005742466887833677 0 0)
(0.0004128610453008881 0 0)
(0.0002691063333674017 0 0)
(0.0001470397293659113 0 0)
(5.046215103777725e-05 0 0)
(-1.71145689145158e-05 0 0)
(-5.291016834592595e-05 0 0)
(-5.468112690668345e-05 0 0)
(-2.085629580747495e-05 0 0)
(4.986816905221119e-05 0 0)
(0.0001581499440701814 0 0)
(0.0003031175888693525 0 0)
(0.0004792934558716661 0 0)
(0.0006747561843259265 0 0)
(0.0008765654584298371 0 0)
(0.001079127448904349 0 0)
(0.001281572107535828 0 0)
(0.001483839512984502 0 0)
(0.001685202944022442 0 0)
(0.001885092191735098 0 0)
(0.002081914207870818 0 0)
(0.002274167659599397 0 0)
(0.002459219522590059 0 0)
(0.002634505195684083 0 0)
(0.002796400138973519 0 0)
(0.002941536904833794 0 0)
(0.003065811759288834 0 0)
(0.003165800305650117 0 0)
(0.003237813833812361 0 0)
(0.003279260488694253 0 0)
(0.003287546605897701 0 0)
(0.003261169199056588 0 0)
(0.003198390737595927 0 0)
(0.003098467195622256 0 0)
(0.002961412467107329 0 0)
(0.00279169857020428 0 0)
(0.002599794655488762 0 0)
(0.002399487944277473 0 0)
(0.002197740387392018 0 0)
(0.001996139383306544 0 0)
(0.001794660066637493 0 0)
(0.001593823300269715 0 0)
(0.001394277157930831 0 0)
(0.001197211902049897 0 0)
(0.001004172799375282 0 0)
(0.0008173370951514415 0 0)
(0.000639307245629954 0 0)
(0.0004732993741636678 0 0)
(0.0003228366551240033 0 0)
(0.00019182972054335 0 0)
(8.415611734767665e-05 0 0)
(3.662397128273878e-06 0 0)
(-4.624458023939101e-05 0 0)
(-6.246311766869898e-05 0 0)
(-4.24092006615124e-05 0 0)
(1.622974442130554e-05 0 0)
(0.0001149721433464497 0 0)
(0.0002534061420228704 0 0)
(0.0004258216173095785 0 0)
(0.0006192609625741742 0 0)
(0.0008196545692776841 0 0)
(0.001020893773556857 0 0)
(0.001222041594905541 0 0)
(0.001423045396849938 0 0)
(0.001623289925192981 0 0)
(0.001822287211162514 0 0)
(0.002018668496728992 0 0)
(0.002211127656664057 0 0)
(0.00239736738716423 0 0)
(0.002575103562732735 0 0)
(0.002741077291612702 0 0)
(0.002892148053476187 0 0)
(0.003024416412495463 0 0)
(0.003134403797868124 0 0)
(0.003218234585894753 0 0)
(0.003272806912892435 0 0)
(0.00329488998571605 0 0)
(0.003282111790337172 0 0)
(0.003231907974241992 0 0)
(0.003142688555350606 0 0)
(0.003013876346694215 0 0)
(0.002849590220578165 0 0)
(0.002660668797261537 0 0)
(0.002461963140803815 0 0)
(0.002261504886751857 0 0)
(0.002061145808623193 0 0)
(0.001860871725125778 0 0)
(0.001661122027181683 0 0)
(0.001462441508613286 0 0)
(0.001265846869616048 0 0)
(0.001072673757318077 0 0)
(0.0008848184940325114 0 0)
(0.0007045825797424122 0 0)
(0.0005348518629795856 0 0)
(0.000378869664550128 0 0)
(0.0002403336066879191 0 0)
(0.000123076188596487 0 0)
(3.108661935520207e-05 0 0)
(-3.182176134872805e-05 0 0)
(-6.192250263352472e-05 0 0)
(-5.579823263757459e-05 0 0)
(-1.022470828688303e-05 0 0)
(7.724612595025478e-05 0 0)
(0.0002069958804789749 0 0)
(0.0003738017995193902 0 0)
(0.0005643554411041387 0 0)
(0.0007632627216658151 0 0)
(0.0009632965374819183 0 0)
(0.001163273840638511 0 0)
(0.001363138018890928 0 0)
(0.001562374714003266 0 0)
(0.001760560412785731 0 0)
(0.001956509907235386 0 0)
(0.002149074413441299 0 0)
(0.002336232893866735 0 0)
(0.002515938255882978 0 0)
(0.002685255453600109 0 0)
(0.002841273048907095 0 0)
(0.002980327082483556 0 0)
(0.003098982569802554 0 0)
(0.003193313922819605 0 0)
(0.003259901309855591 0 0)
(0.003295070241736487 0 0)
(0.00329576905678686 0 0)
(0.003258724937945877 0 0)
(0.003181525789442582 0 0)
(0.003062808237045465 0 0)
(0.002905815332998021 0 0)
(0.002721009084769915 0 0)
(0.002524157526815595 0 0)
(0.002324906436853208 0 0)
(0.002125682241926601 0 0)
(0.00192650969862335 0 0)
(0.001727756947962278 0 0)
(0.001529883578647269 0 0)
(0.001333760620006165 0 0)
(0.001140555501096452 0 0)
(0.0009519298832812265 0 0)
(0.0007699341842841759 0 0)
(0.0005971603716307072 0 0)
(0.0004365898567976825 0 0)
(0.0002916844842685367 0 0)
(0.0001661629264347615 0 0)
(6.40278059171459e-05 0 0)
(-1.068090266633934e-05 0 0)
(-5.382976561999669e-05 0 0)
(-6.139034437793882e-05 0 0)
(-2.941026953760804e-05 0 0)
(4.542420087165913e-05 0 0)
(0.0001644835728637244 0 0)
(0.0003236764084456076 0 0)
(0.000510193150632739 0 0)
(0.0007073818723463674 0 0)
(0.0009062694807726373 0 0)
(0.001105153901708668 0 0)
(0.001303953062009354 0 0)
(0.001502245332467188 0 0)
(0.001699663195309782 0 0)
(0.00189517611663564 0 0)
(0.002087765496893325 0 0)
(0.00227564039179502 0 0)
(0.002456954925571458 0 0)
(0.00262905507063397 0 0)
(0.002789245568923995 0 0)
(0.002934100470502102 0 0)
(0.003060283632375145 0 0)
(0.003163909715011346 0 0)
(0.003241389051252608 0 0)
(0.003288772932996993 0 0)
(0.003302526034884336 0 0)
(0.003278831954289645 0 0)
(0.003214567788751967 0 0)
(0.00310752667686313 0 0)
(0.002959707946116564 0 0)
(0.00278043446047709 0 0)
(0.002585926714446224 0 0)
(0.002387875194596161 0 0)
(0.002189716628575701 0 0)
(0.001991579404434828 0 0)
(0.001793770617453 0 0)
(0.001596674768118851 0 0)
(0.001401037846090418 0 0)
(0.001207887969655016 0 0)
(0.001018687136607092 0 0)
(0.0008352749511047117 0 0)
(0.0006599863524011577 0 0)
(0.0004955646120810619 0 0)
(0.0003452358455775636 0 0)
(0.0002125673333238189 0 0)
(0.0001014910187107067 0 0)
(1.613834918446885e-05 0 0)
(-3.913101960224695e-05 0 0)
(-5.988472431470442e-05 0 0)
(-4.164232005440051e-05 0 0)
(1.963800858218629e-05 0 0)
(0.0001263531106025579 0 0)
(0.0002759594199327248 0 0)
(0.00045700124239766 0 0)
(0.0006520204418440261 0 0)
(0.0008497648967709819 0 0)
(0.001047605044027983 0 0)
(0.00124538332982218 0 0)
(0.001442763465042284 0 0)
(0.001639429406289136 0 0)
(0.001834484023748526 0 0)
(0.00202702164535782 0 0)
(0.002215445712550874 0 0)
(0.002398083449469368 0 0)
(0.002572524105338454 0 0)
(0.002736270797682714 0 0)
(0.00288612495399742 0 0)
(0.003018878843183004 0 0)
(0.003130742896268843 0 0)
(0.003218065592655551 0 0)
(0.003276758432236637 0 0)
(0.003302972817471905 0 0)
(0.003292513188133246 0 0)
(0.00324169481678372 0 0)
(0.003147521680955137 0 0)
(0.003010595455788839 0 0)
(0.00283848691785977 0 0)
(0.002647109323520143 0 0)
(0.00245034878177377 0 0)
(0.002253211055722369 0 0)
(0.002056066683822699 0 0)
(0.001859173323577255 0 0)
(0.001662846720262197 0 0)
(0.00146772326028931 0 0)
(0.001274711371493316 0 0)
(0.001085101173975644 0 0)
(0.0009005519355547471 0 0)
(0.0007231732475338098 0 0)
(0.0005554944380896423 0 0)
(0.0004005149736697607 0 0)
(0.0002616331055381179 0 0)
(0.0001426577052820802 0 0)
(4.77155672670504e-05 0 0)
(-1.8744490136256e-05 0 0)
(-5.205626384624413e-05 0 0)
(-4.739245654944895e-05 0 0)
(-1.486443240517861e-07 0 0)
(9.300831003877411e-05 0 0)
(0.0002312352109686851 0 0)
(0.0004051249898011412 0 0)
(0.0005972319041607524 0 0)
(0.0007937579286903165 0 0)
(0.0009905853336321115 0 0)
(0.001187368569931895 0 0)
(0.001383849748047222 0 0)
(0.001579760188519341 0 0)
(0.001774321514950172 0 0)
(0.001966728596691749 0 0)
(0.002155553025484009 0 0)
(0.002339273499164831 0 0)
(0.002515691628573458 0 0)
(0.002682490968370453 0 0)
(0.002836685593710445 0 0)
(0.002975209884543538 0 0)
(0.003094403382647196 0 0)
(0.003190627130064141 0 0)
(0.003259751897943149 0 0)
(0.003297750451068319 0 0)
(0.00330019036415986 0 0)
(0.003262976190808134 0 0)
(0.003182447360978405 0 0)
(0.003057844958434492 0 0)
(0.002894629111255014 0 0)
(0.002707505574584633 0 0)
(0.002512280681685571 0 0)
(0.002316139909443534 0 0)
(0.002119959883269774 0 0)
(0.001923967386396787 0 0)
(0.001728414635344318 0 0)
(0.001533840349261312 0 0)
(0.001341048011555435 0 0)
(0.001151176142490508 0 0)
(0.0009657271947408092 0 0)
(0.0007866110458749448 0 0)
(0.0006161646249476562 0 0)
(0.000457173031186734 0 0)
(0.0003128593395373512 0 0)
(0.0001868779109568898 0 0)
(8.328652110144433e-05 0 0)
(6.524589419370651e-06 0 0)
(-3.863678885451913e-05 0 0)
(-4.717294950515295e-05 0 0)
(-1.408001276044435e-05 0 0)
(6.474848622188607e-05 0 0)
(0.0001901011422326851 0 0)
(0.0003550350108154721 0 0)
(0.0005431395261771494 0 0)
(0.000738242053541223 0 0)
(0.0009340728107676702 0 0)
(0.001129877562845738 0 0)
(0.00132546260958508 0 0)
(0.001520602969456513 0 0)
(0.001714627286501673 0 0)
(0.001906822747287588 0 0)
(0.002095908685511218 0 0)
(0.002280499895944822 0 0)
(0.002458584977129254 0 0)
(0.002628012287137559 0 0)
(0.002785991588228328 0 0)
(0.002929603343999102 0 0)
(0.003055330159378698 0 0)
(0.003159589123944871 0 0)
(0.003238268477149624 0 0)
(0.003287247578330633 0 0)
(0.003301946501496086 0 0)
(0.003277968047428534 0 0)
(0.003211123969036202 0 0)
(0.003099508906347828 0 0)
(0.00294657980302646 0 0)
(0.002765290461163625 0 0)
(0.002572629938366287 0 0)
(0.002378202463176856 0 0)
(0.002183686195258713 0 0)
(0.001989327752986923 0 0)
(0.001795348978243745 0 0)
(0.001602264165301803 0 0)
(0.001410859140293136 0 0)
(0.001222261267209205 0 0)
(0.001037979763755076 0 0)
(0.00085994447440251 0 0)
(0.0006905322158891092 0 0)
(0.0005325740034811783 0 0)
(0.0003893303769241767 0 0)
(0.0002644093383497029 0 0)
(0.000161562037759619 0 0)
(8.417930231673741e-05 0 0)
(3.407699094159949e-05 0 0)
(9.125002977891786e-06 0 0)
(1.248620672507597e-06 0 0)
(6.116586843126945e-08 0 0)
(7.110535159454319e-10 0 0)
(-9.292127635059294e-13 0 0)
(-2.146044637475353e-12 0 0)
(-1.589789937393955e-12 0 0)
(-1.089078284649137e-12 0 0)
(-1.042003162387168e-12 0 0)
(-1.463636198776312e-12 0 0)
(-1.340217055203436e-12 0 0)
(-1.483935303536828e-12 0 0)
(-1.688863056916178e-12 0 0)
(-1.309631564191066e-12 0 0)
(-1.803541124650033e-12 0 0)
(-2.197890413320527e-12 0 0)
(-1.820704266492213e-12 0 0)
(-1.983352638788856e-12 0 0)
(-2.139078457081759e-12 0 0)
(-2.085862289826227e-12 0 0)
(-1.900788248769943e-12 0 0)
(-1.674615762682684e-12 0 0)
(-1.636997681651778e-12 0 0)
(-1.8045010655663e-12 0 0)
(-1.929789814820862e-12 0 0)
(-1.806063721241441e-12 0 0)
(-1.622929370777418e-12 0 0)
(-1.430198047602095e-12 0 0)
(-1.475375868426053e-12 0 0)
(-1.457301129112298e-12 0 0)
(-1.074284578567181e-12 0 0)
(-1.089687124719668e-12 0 0)
(-9.317307647154889e-13 0 0)
(-4.495594834437421e-13 0 0)
(-6.9740618304483e-14 0 0)
(7.477614138361034e-13 0 0)
(1.12665546307477e-12 0 0)
(1.235731287145617e-12 0 0)
(1.127452845656285e-12 0 0)
(8.626891671650102e-13 0 0)
(9.399313874510479e-13 0 0)
(6.861443105196867e-13 0 0)
(1.180086027734332e-13 0 0)
(-2.661646613941873e-13 0 0)
(-4.599119906685906e-13 0 0)
(-7.429078290802078e-13 0 0)
(-9.409333136569781e-13 0 0)
(-9.050452261803746e-13 0 0)
(-9.104202440266635e-13 0 0)
(-9.18174878687212e-13 0 0)
(-6.270775966552259e-13 0 0)
(-4.952048446412437e-13 0 0)
(-2.611759629668201e-13 0 0)
(7.491014894868362e-14 0 0)
(3.701969839978182e-13 0 0)
(8.809340246914824e-13 0 0)
(1.249963749315755e-12 0 0)
(1.410510614044786e-12 0 0)
(1.799295568857683e-12 0 0)
(2.178254244062754e-12 0 0)
(2.05097756561575e-12 0 0)
(1.856446072725679e-12 0 0)
(2.197461924191876e-12 0 0)
(2.607375745007255e-12 0 0)
(2.744385372022514e-12 0 0)
(3.213660811555524e-12 0 0)
(3.122239185399396e-12 0 0)
(3.387375616663411e-12 0 0)
(3.702638871437951e-12 0 0)
(3.471412505769329e-12 0 0)
(3.717588075897114e-12 0 0)
(4.348771254259443e-12 0 0)
(4.503442363356469e-12 0 0)
(4.616703069691792e-12 0 0)
(4.904625924283173e-12 0 0)
(4.67098315608032e-12 0 0)
(4.144865573413853e-12 0 0)
(3.322234126077803e-12 0 0)
(2.711123459744006e-12 0 0)
(2.619227013880338e-12 0 0)
(2.655405082730515e-12 0 0)
(2.99677451016635e-12 0 0)
(3.043302435194124e-12 0 0)
(2.721898823013192e-12 0 0)
(2.413780635747539e-12 0 0)
(2.597608521813049e-12 0 0)
(2.491441583301178e-12 0 0)
(2.038592906235612e-12 0 0)
(1.978456711572141e-12 0 0)
(1.901352036066061e-12 0 0)
(2.043024823286442e-12 0 0)
(2.317872220121791e-12 0 0)
(2.38081583678262e-12 0 0)
(2.167348990678323e-12 0 0)
(1.656784212634382e-12 0 0)
(1.421219864177289e-12 0 0)
(1.303844362807901e-12 0 0)
(1.130481788920655e-12 0 0)
(1.222431411863854e-12 0 0)
(1.000034070357978e-12 0 0)
(7.566925695562047e-13 0 0)
(6.230553781870622e-13 0 0)
(4.126436176302454e-13 0 0)
(5.309652087236407e-13 0 0)
(7.674931533135362e-13 0 0)
(8.88761678760051e-13 0 0)
(1.030000865274008e-12 0 0)
(7.2217359380454e-13 0 0)
(7.423671147520201e-13 0 0)
(9.271566285043251e-13 0 0)
(7.078609864926062e-13 0 0)
(4.222456364686391e-13 0 0)
(3.500575450406196e-13 0 0)
(2.643125664767638e-13 0 0)
(2.37512848454816e-13 0 0)
(6.545522099056771e-13 0 0)
(9.942013820549408e-13 0 0)
(1.19756004030247e-12 0 0)
(9.929840189065229e-13 0 0)
(9.409558351224154e-13 0 0)
(1.039065514642889e-12 0 0)
(1.029659503450917e-12 0 0)
(8.026980127389599e-13 0 0)
(8.577083869807495e-13 0 0)
(9.966363633450389e-13 0 0)
(8.580390134760533e-13 0 0)
(7.20231192426932e-13 0 0)
(2.260527023152841e-13 0 0)
(-1.842889440257728e-13 0 0)
(-5.08832202252267e-13 0 0)
(-7.801342029078967e-13 0 0)
(-9.299269309668598e-13 0 0)
(-1.43748312230637e-12 0 0)
(-1.941418702182632e-12 0 0)
(-2.279100740520241e-12 0 0)
(-2.648694201235243e-12 0 0)
(-2.829796929710511e-12 0 0)
(-2.80097755903042e-12 0 0)
(-3.057434453793077e-12 0 0)
(-3.121002321464489e-12 0 0)
(-2.755445512446627e-12 0 0)
(-2.576549641447035e-12 0 0)
(-2.613682927165774e-12 0 0)
(-2.733842491465689e-12 0 0)
(-2.928234675609978e-12 0 0)
(-2.849092172290726e-12 0 0)
(-2.815290792323608e-12 0 0)
(-2.899571650933086e-12 0 0)
(-2.516500429000009e-12 0 0)
(-2.271614849731811e-12 0 0)
(-2.304557958732875e-12 0 0)
(-1.706774946399362e-12 0 0)
(-1.220127509369057e-12 0 0)
(-6.913959694775747e-13 0 0)
(-3.263493341575753e-13 0 0)
(-5.288632767902919e-14 0 0)
(2.806977769874583e-13 0 0)
(3.460899612204691e-13 0 0)
(6.514283634317216e-13 0 0)
(9.399489078753073e-13 0 0)
(1.027867037025055e-12 0 0)
(1.414615024406054e-12 0 0)
(1.712181668426196e-12 0 0)
(1.77371582247093e-12 0 0)
(1.797722743633461e-12 0 0)
(2.27606792755615e-12 0 0)
(2.156134665371065e-12 0 0)
(1.381662991188662e-12 0 0)
(8.946473789264129e-13 0 0)
(8.049738038425615e-13 0 0)
(5.028800808045534e-13 0 0)
(-4.046820638963866e-14 0 0)
(3.722028634851231e-15 0 0)
(1.592833307659763e-14 0 0)
(-6.142390038876936e-14 0 0)
(-1.988160088324506e-13 0 0)
(-8.392565060363452e-13 0 0)
(-1.167438514995798e-12 0 0)
(-8.038577184103904e-13 0 0)
(-8.878653013400377e-13 0 0)
(-8.7703209601266e-13 0 0)
(-7.191226374690384e-13 0 0)
(-9.303951745346037e-13 0 0)
(-1.218776321791558e-12 0 0)
(-1.077058889624221e-12 0 0)
(-1.036225599040407e-12 0 0)
(-1.305819044269122e-12 0 0)
(-1.429070259286174e-12 0 0)
(-1.806784359917591e-12 0 0)
(-1.983609671379478e-12 0 0)
(-2.08302179822238e-12 0 0)
(-2.75538302299662e-12 0 0)
(-2.591305758903366e-12 0 0)
(-2.004940486695125e-12 0 0)
(-1.560629879624955e-12 0 0)
(-1.399427010532926e-12 0 0)
(-1.087364845071319e-12 0 0)
(-5.827133810685914e-13 0 0)
(-3.251002565656065e-13 0 0)
(-2.250794820570772e-13 0 0)
(-7.257009120389946e-14 0 0)
(-7.703456274273199e-14 0 0)
(-5.114963349337788e-13 0 0)
(-8.334391547207837e-13 0 0)
(-9.871115682709135e-13 0 0)
(-1.138984496730505e-12 0 0)
(-1.283620606183435e-12 0 0)
(-1.435913354445126e-12 0 0)
(-1.802800794674558e-12 0 0)
(-2.090187732333898e-12 0 0)
(-1.980334529572275e-12 0 0)
(-1.67479721306717e-12 0 0)
(-1.651009198909507e-12 0 0)
(-1.873333852298679e-12 0 0)
(-1.655688649906867e-12 0 0)
(-1.427514266880434e-12 0 0)
(-1.42533610424444e-12 0 0)
(-1.420681864956047e-12 0 0)
(-1.364450220613845e-12 0 0)
(-9.48130737866512e-13 0 0)
(-6.458114751808428e-13 0 0)
(-6.128701927514119e-13 0 0)
(-6.912671432915371e-13 0 0)
(-5.347888065959641e-13 0 0)
(-2.869924980748346e-13 0 0)
(-3.079483208060255e-13 0 0)
(-3.596266071117473e-14 0 0)
(8.937253853678319e-14 0 0)
(1.936453053088198e-13 0 0)
(1.406282404225929e-13 0 0)
(1.783683416479342e-13 0 0)
(1.480181382670289e-13 0 0)
(-5.990670653531374e-15 0 0)
(3.115166133157356e-14 0 0)
(4.633236396637503e-14 0 0)
(1.816615805929687e-14 0 0)
(-2.407941182407079e-13 0 0)
(-3.874405602725651e-13 0 0)
(-3.718696210860513e-13 0 0)
(1.58290716778661e-13 0 0)
(5.158895415199563e-13 0 0)
(5.28862440286223e-13 0 0)
(3.686189832071554e-13 0 0)
(1.644495508905503e-13 0 0)
(1.448339849434924e-13 0 0)
(-3.707475086428759e-13 0 0)
(-5.580156342362033e-13 0 0)
(-7.32421544966883e-13 0 0)
(-1.04424707716843e-12 0 0)
(-1.522908676512911e-12 0 0)
(-1.832277143015618e-12 0 0)
(-1.931159507627075e-12 0 0)
(-2.303027138627881e-12 0 0)
(-2.222980585432728e-12 0 0)
(-2.089673858470306e-12 0 0)
(-2.036882867612487e-12 0 0)
(-1.945332195057176e-12 0 0)
(-1.966783645083189e-12 0 0)
(-1.760819595268717e-12 0 0)
(-1.361503713240805e-12 0 0)
(-1.144976391036228e-12 0 0)
(-1.33335515261963e-12 0 0)
(-9.140067582667015e-13 0 0)
(-4.60353558739634e-13 0 0)
(4.443131940185885e-14 0 0)
(4.398524445437992e-13 0 0)
(8.003658039108218e-13 0 0)
(1.091004845194859e-12 0 0)
(1.044514237442426e-12 0 0)
(9.317789542099409e-13 0 0)
(6.057913563706348e-13 0 0)
(6.054485361371988e-13 0 0)
(6.937279682792015e-13 0 0)
(6.831716621588822e-13 0 0)
(9.039616547459167e-13 0 0)
(9.592554727682503e-13 0 0)
(7.955764728585575e-13 0 0)
(7.411669113460072e-13 0 0)
(6.620239972861846e-13 0 0)
(4.572809466515006e-13 0 0)
(3.658564755838575e-13 0 0)
(2.943918440133126e-13 0 0)
(1.686996594764981e-13 0 0)
(-6.225811284734316e-14 0 0)
(-5.013170688852926e-14 0 0)
(8.267733499290833e-14 0 0)
(3.279408454398645e-13 0 0)
(9.326638227685585e-13 0 0)
(1.67038163720922e-12 0 0)
(2.008406620891361e-12 0 0)
(1.491199089986142e-12 0 0)
(1.558186245175367e-12 0 0)
(1.723713086228441e-12 0 0)
(1.663766433547813e-12 0 0)
(1.079112321869266e-12 0 0)
(9.3465704965034e-13 0 0)
(1.551748971508863e-12 0 0)
(1.739961705064336e-12 0 0)
(1.987925553835181e-12 0 0)
(2.053011889852349e-12 0 0)
(1.695229248433747e-12 0 0)
(9.61510679382473e-13 0 0)
(7.145904497220515e-13 0 0)
(1.421914541155359e-12 0 0)
(1.756063270878101e-12 0 0)
(2.242034942490242e-12 0 0)
(2.548602865860283e-12 0 0)
(2.714694164703781e-12 0 0)
(2.951404022154916e-12 0 0)
(2.455001444163026e-12 0 0)
(1.845650340178615e-12 0 0)
(1.50824632650691e-12 0 0)
(1.611236443596467e-12 0 0)
(1.460527756150383e-12 0 0)
(1.646865948548063e-12 0 0)
(1.820063263351182e-12 0 0)
(1.778201172053365e-12 0 0)
(1.60985571201932e-12 0 0)
(1.357730105573789e-12 0 0)
(1.006177906663383e-12 0 0)
(3.544479030288481e-13 0 0)
(3.025005085834663e-13 0 0)
(1.066257581714597e-13 0 0)
(2.812886555413223e-13 0 0)
(9.71319105586745e-13 0 0)
(1.642892303555164e-12 0 0)
(1.978333106113165e-12 0 0)
(1.927179185312698e-12 0 0)
(2.108226835303739e-12 0 0)
(2.33914188987517e-12 0 0)
(2.64394112067006e-12 0 0)
(2.802258303812196e-12 0 0)
(3.178156570368482e-12 0 0)
(3.649858042125839e-12 0 0)
(4.119956202674762e-12 0 0)
(4.705934334227343e-12 0 0)
(4.625324387620333e-12 0 0)
(4.40614902778072e-12 0 0)
(4.434803606271709e-12 0 0)
(4.904927788599816e-12 0 0)
(4.662996186153679e-12 0 0)
(3.898245322802055e-12 0 0)
(3.498202210409188e-12 0 0)
(2.886297766382767e-12 0 0)
(2.459111504453802e-12 0 0)
(2.100245345844704e-12 0 0)
(1.68290873687298e-12 0 0)
(1.031595721640803e-12 0 0)
(6.112043877469542e-13 0 0)
(2.411662922534128e-13 0 0)
(-3.014058747243356e-14 0 0)
(-1.239362103760122e-13 0 0)
(-7.117892747023927e-14 0 0)
(6.582813470132827e-14 0 0)
(2.031336167692065e-13 0 0)
(2.094316245419477e-13 0 0)
(-3.219054536225215e-13 0 0)
(-4.813161588641417e-13 0 0)
(-7.863567899667277e-13 0 0)
(-1.14086457290438e-12 0 0)
(-7.664507715658447e-13 0 0)
(-8.124172755810872e-13 0 0)
(-1.243113021872269e-12 0 0)
(-1.577163036448656e-12 0 0)
(-1.028888823991121e-12 0 0)
(-5.293517292229028e-13 0 0)
(-2.081046388618477e-13 0 0)
(-7.648298304698685e-14 0 0)
(-4.493274734806786e-14 0 0)
(-5.966966747646103e-14 0 0)
(-2.132949387801213e-13 0 0)
(-5.917967346047867e-13 0 0)
(-1.327063447955661e-12 0 0)
(-1.948802082156282e-12 0 0)
(-2.298435203700049e-12 0 0)
(-2.095810026351041e-12 0 0)
(-1.765974782563325e-12 0 0)
(-1.373457996805721e-12 0 0)
(-8.326412787756286e-13 0 0)
(-8.155922773765403e-13 0 0)
(-6.758698719383145e-13 0 0)
(-1.933334475225739e-13 0 0)
(3.723916426995529e-13 0 0)
(5.081533527466861e-13 0 0)
(9.121060378619177e-13 0 0)
(1.422618170111266e-12 0 0)
(1.998712961520996e-12 0 0)
(1.874455407748004e-12 0 0)
(9.939875781259625e-13 0 0)
(9.869513430280005e-13 0 0)
(8.153954673744887e-13 0 0)
(2.888315320333634e-13 0 0)
(-2.638928043967628e-13 0 0)
(-5.621068019708115e-13 0 0)
(-7.525999543079871e-13 0 0)
(-8.840278543638861e-13 0 0)
(-1.125013654204388e-12 0 0)
(-1.396689984922458e-12 0 0)
(-1.4395702803215e-12 0 0)
(-1.708019285797257e-12 0 0)
(-2.234070236731553e-12 0 0)
(-2.66802058612913e-12 0 0)
(-2.503170725751692e-12 0 0)
(-2.647038809020135e-12 0 0)
(-3.184918759806033e-12 0 0)
(-3.31516304615683e-12 0 0)
(-3.162167825442307e-12 0 0)
(-2.81467809350536e-12 0 0)
(-2.410623516104227e-12 0 0)
(-1.841870635566529e-12 0 0)
(-1.369288221204131e-12 0 0)
(-1.119386527255075e-12 0 0)
(-1.051049185920868e-12 0 0)
(-9.638565065467477e-13 0 0)
(-6.534116939356566e-13 0 0)
(-5.10823708059939e-13 0 0)
(-1.682275912789773e-13 0 0)
(1.449600676971955e-13 0 0)
(3.35232243841338e-13 0 0)
(5.198234150318099e-13 0 0)
(7.889774943929059e-13 0 0)
(7.527684331909547e-13 0 0)
(7.053809084610877e-13 0 0)
(1.18202974358432e-12 0 0)
(1.421408502621662e-12 0 0)
(1.472194438592868e-12 0 0)
(1.572505658365621e-12 0 0)
(1.838709180208078e-12 0 0)
(1.764167340607735e-12 0 0)
(1.981932032138218e-12 0 0)
(2.205236471698091e-12 0 0)
(2.264125848245405e-12 0 0)
(2.32933943236927e-12 0 0)
(2.20928578399142e-12 0 0)
(2.406603470549934e-12 0 0)
(2.729343197365164e-12 0 0)
(3.245218943426941e-12 0 0)
(3.273075565417943e-12 0 0)
(2.797613891886079e-12 0 0)
(2.615834604295595e-12 0 0)
(2.274162688145234e-12 0 0)
(1.871455152972677e-12 0 0)
(1.756857914725639e-12 0 0)
(1.821235406331021e-12 0 0)
)
;

boundaryField
{
    inlet
    {
        type            calculated;
        value           uniform (-6.096222643275773e-05 0 0);
    }
    outlet
    {
        type            calculated;
        value           uniform (1.821235406331021e-12 0 0);
    }
    frontAndBack
    {
        type            empty;
    }
}


// ************************************************************************* //
