/*--------------------------------*- C++ -*----------------------------------*\
| =========                 |                                                 |
| \\      /  F ield         | OpenFOAM: The Open Source CFD Toolbox           |
|  \\    /   O peration     | Version:  v2012                                 |
|   \\  /    A nd           | Website:  www.openfoam.com                      |
|    \\/     M anipulation  |                                                 |
\*---------------------------------------------------------------------------*/
FoamFile
{
    version     2.0;
    format      ascii;
    class       volScalarField;
    location    "0.006";
    object      pMean;
}
// * * * * * * * * * * * * * * * * * * * * * * * * * * * * * * * * * * * * * //

dimensions      [1 -1 -2 0 0 0 0];


internalField   nonuniform List<scalar> 
1000
(
101325.0421936339
101325.0246084802
101325.0204602275
101325.0619422883
101325.0855223376
101325.1217851846
101325.16915075
101325.2227090778
101325.2587939171
101325.3312078938
101325.3845447142
101325.4372002616
101325.4979580224
101325.5675177827
101325.6075005019
101325.6596767759
101325.7249729476
101325.7590957691
101325.7944901218
101325.8314978129
101325.8593933741
101325.8733820819
101325.8715160465
101325.8939213241
101325.8820340275
101325.8609274724
101325.8296860405
101325.8233135801
101325.7853166165
101325.7137131686
101325.6902295632
101325.6502658939
101325.5644057392
101325.4987136898
101325.4848220686
101325.403294757
101325.3307042823
101325.2949180354
101325.2523050949
101325.1853626719
101325.1303697109
101325.1142255974
101325.0707957874
101325.0367452531
101325.0167591597
101325.0170606587
101325.0071657298
101325.0038479651
101325.0254235664
101325.0465447159
101325.0688462748
101325.1061287861
101325.151825772
101325.1883357086
101325.2518364715
101325.31350515
101325.3590013622
101325.4196860023
101325.4817037385
101325.5297129581
101325.5864223681
101325.6445397959
101325.6815816246
101325.7332227159
101325.7858802359
101325.8082326781
101325.8374953218
101325.8670064034
101325.881201579
101325.8810212646
101325.8792018006
101325.8704751955
101325.8547804046
101325.8215556705
101325.7902657239
101325.7566289903
101325.7022990674
101325.6467023927
101325.5976643448
101325.5390541507
101325.4715728337
101325.4318747652
101325.3747366786
101325.3081995465
101325.2644648381
101325.2207337284
101325.1648071146
101325.1206534583
101325.0930185345
101325.055112567
101325.0327669052
101325.0148776361
101325.0099901122
101325.0060117349
101325.0188718065
101325.0329292194
101325.0576564315
101325.0949633906
101325.1342390671
101325.1756403841
101325.2339042102
101325.2946442492
101325.3454543521
101325.3973580703
101325.4594944347
101325.5151356103
101325.5581399853
101325.6175403782
101325.6718103547
101325.7066067786
101325.7536102348
101325.8002852859
101325.8223297105
101325.8434298658
101325.8771736615
101325.8818180514
101325.870880354
101325.8823588258
101325.8684153678
101325.822380116
101325.8077611446
101325.7794922715
101325.7104779064
101325.6621976074
101325.6245616077
101325.5509677907
101325.4937696119
101325.4539701967
101325.3939392027
101325.3284135329
101325.2965012802
101325.2394585761
101325.1807108098
101325.1517647611
101325.1158468308
101325.0650185762
101325.0473948575
101325.0374666875
101325.0052295778
101325.0093593595
101325.0191571799
101325.0261876603
101325.0408069294
101325.086425912
101325.1155390845
101325.1586453504
101325.2240210722
101325.2691157392
101325.3295927943
101325.3852735563
101325.4329235596
101325.4902659889
101325.5511580232
101325.5891319027
101325.639071364
101325.7059742214
101325.7267716022
101325.7675934454
101325.818215242
101325.8369374973
101325.8461612858
101325.8823501013
101325.8845234037
101325.8618712318
101325.8748110785
101325.8542698036
101325.8073612025
101325.7808875335
101325.7534871946
101325.6732704071
101325.6259977683
101325.5835309463
101325.5155278091
101325.461327895
101325.4184699423
101325.3586512949
101325.3009027466
101325.27037872
101325.2060888278
101325.1616665368
101325.137748458
101325.0882933012
101325.0542514715
101325.0483563297
101325.0216794739
101325.0020128387
101325.0260723283
101325.0217813402
101325.0306899831
101325.0737201153
101325.1084315991
101325.1358535235
101325.2068663127
101325.2619635887
101325.303178842
101325.3649997074
101325.423051852
101325.4686399487
101325.5182773894
101325.582742232
101325.6199394622
101325.6686816604
101325.7168001709
101325.756570995
101325.7886219131
101325.819468064
101325.849278375
101325.8603218882
101325.8747511729
101325.8722532325
101325.8742881308
101325.8497105616
101325.8280131646
101325.797665358
101325.7570361015
101325.6959608776
101325.6488231528
101325.5960895548
101325.5340432556
101325.4892583643
101325.437364202
101325.3753969633
101325.3301980183
101325.287220724
101325.2286742538
101325.1865447443
101325.154880143
101325.1088584213
101325.0768368554
101325.0576180251
101325.0350752596
101325.0153312565
101325.0245972766
101325.0241117618
101325.0311587157
101325.0608781981
101325.095243868
101325.1304185998
101325.1858830614
101325.2428402708
101325.2928880907
101325.3463875569
101325.4006792907
101325.4532816028
101325.5019122706
101325.5561631607
101325.6059987642
101325.6482318999
101325.6956619851
101325.7383106903
101325.7735634485
101325.8035810207
101325.8347388122
101325.8526293759
101325.8653107897
101325.8712729316
101325.8698768438
101325.8560581528
101325.8372783087
101325.8072221754
101325.7687671592
101325.7164353619
101325.6649376528
101325.6120710633
101325.5578326721
101325.5021118106
101325.4571335927
101325.4001160744
101325.3493863777
101325.3012713598
101325.2578883852
101325.2034928153
101325.1685777146
101325.1315471401
101325.0944089534
101325.0675309588
101325.0475262077
101325.0322456846
101325.0192833375
101325.0296589732
101325.0340553366
101325.0497626446
101325.0851314377
101325.1200925859
101325.1698588235
101325.2210526874
101325.2827965319
101325.3233135203
101325.3853675648
101325.432572987
101325.4865812612
101325.5333618897
101325.5862054577
101325.6318522374
101325.6726128369
101325.7235243053
101325.7525871667
101325.7920078617
101325.815617547
101325.8427160534
101325.8552180312
101325.8650176087
101325.8651602534
101325.8565209309
101325.8449988847
101325.8102258228
101325.7828821611
101325.7312769822
101325.6821651121
101325.6259795778
101325.5748309905
101325.5240584041
101325.4721578142
101325.4210717295
101325.3673340617
101325.3248735898
101325.2718921761
101325.2298974184
101325.184988582
101325.1489831061
101325.1106102402
101325.0842881793
101325.0589139678
101325.0394085147
101325.0325444456
101325.0290428283
101325.0345698193
101325.0486484734
101325.0777119139
101325.1060909338
101325.1541517669
101325.2090397237
101325.2590894835
101325.3122458667
101325.3626959416
101325.4155434803
101325.4670865995
101325.515645288
101325.5657257952
101325.613222864
101325.6562853638
101325.7004166553
101325.7405959548
101325.7718288844
101325.8011781532
101325.8291713341
101325.8495741701
101325.8522154713
101325.8611737841
101325.8627245731
101325.8432508638
101325.8172972326
101325.7952881315
101325.7518781871
101325.6926086698
101325.6511402045
101325.5950899156
101325.5402312774
101325.4923093871
101325.4434099069
101325.3886959558
101325.3386985145
101325.2985571692
101325.2460122187
101325.2047867669
101325.1650435097
101325.1331011728
101325.0965961811
101325.0723246194
101325.0546484615
101325.0399377609
101325.0359986562
101325.0339506892
101325.0525859887
101325.0675825724
101325.1007481281
101325.1382865244
101325.195082536
101325.239501511
101325.2987112486
101325.3467865667
101325.3922594326
101325.4506665507
101325.5002442265
101325.5448048844
101325.589355926
101325.6473362579
101325.6767484974
101325.7186925509
101325.7609278312
101325.7882183138
101325.8099546937
101325.8363404869
101325.8521877398
101325.8491998775
101325.8579820955
101325.8438543706
101325.8245204276
101325.7983038366
101325.7665975741
101325.709199343
101325.6615777869
101325.6155051071
101325.5558799079
101325.5094903762
101325.4611664501
101325.4066200818
101325.3585974022
101325.3163863493
101325.2663951592
101325.21892198
101325.1875759242
101325.1484904853
101325.1099372919
101325.0863950797
101325.0703462149
101325.0454467484
101325.0409752545
101325.0464053867
101325.045865125
101325.0649580561
101325.0982518824
101325.1262480972
101325.1732341134
101325.2338292475
101325.2789980479
101325.3253939269
101325.3843431673
101325.4310161942
101325.4782527274
101325.5278301084
101325.5796386787
101325.6188350329
101325.6647659891
101325.7060077704
101325.7397332193
101325.7731918192
101325.8032387135
101325.8235382129
101325.8372149747
101325.8524460097
101325.8491933468
101325.8436779227
101325.8318254831
101325.8059889494
101325.7726622497
101325.732755904
101325.6794995768
101325.6272458653
101325.5808989652
101325.5272040787
101325.4783592082
101325.4284950586
101325.3819451129
101325.3296133989
101325.2893032501
101325.2438044408
101325.1987547956
101325.1664159466
101325.132334855
101325.0991208799
101325.0766825947
101325.0652923529
101325.0441743843
101325.0487414047
101325.0517914996
101325.0630125706
101325.0865867934
101325.1212134829
101325.1611770051
101325.2103516468
101325.2681028061
101325.31175921
101325.3626350466
101325.4124542552
101325.4663719961
101325.5075363056
101325.5596274517
101325.6026561464
101325.6458137341
101325.6887961511
101325.7238069451
101325.7597175026
101325.7864866319
101325.8142097305
101325.8275652066
101325.8426827401
101325.8442364643
101325.8432897973
101325.8327199284
101325.8097526841
101325.7821269534
101325.7455477595
101325.6970415606
101325.6431017982
101325.5948349802
101325.5480317371
101325.4957208865
101325.4472679494
101325.3995787981
101325.3515386414
101325.3048184542
101325.2658501603
101325.2182625262
101325.1812703054
101325.1499689249
101325.1190011725
101325.0883674126
101325.0720233576
101325.0622982025
101325.049581
101325.0553635896
101325.0657416503
101325.0829180358
101325.1102687936
101325.1498792451
101325.1991929964
101325.2446849543
101325.3015941644
101325.3437721494
101325.3967541877
101325.4453925679
101325.4940159312
101325.537962669
101325.5850835782
101325.6316538595
101325.6669644048
101325.711789741
101325.7401913432
101325.7757393063
101325.7967408879
101325.8214207475
101325.8320871673
101325.8413863076
101325.8391627591
101325.8295056176
101325.8183788007
101325.7871279848
101325.7571845467
101325.709591692
101325.662896192
101325.608496205
101325.5639300154
101325.5143318021
101325.4628428124
101325.4183199283
101325.3705561113
101325.3254142649
101325.2772651386
101325.2425901263
101325.1968365445
101325.1634151635
101325.1349136888
101325.104952389
101325.0807462404
101325.0712397436
101325.0606774399
101325.0541551798
101325.0675595663
101325.0800266228
101325.1049390442
101325.1367415249
101325.1850837197
101325.2319956768
101325.2824421534
101325.3303276941
101325.3792937303
101325.4277922396
101325.4756743024
101325.5224436697
101325.5675926923
101325.6126395458
101325.6521923658
101325.6925806125
101325.7272259636
101325.7596009182
101325.7853339964
101325.8085458044
101325.8237167374
101325.8335073893
101325.8360511672
101325.8296037299
101325.819815946
101325.7945769722
101325.7647172815
101325.7287910728
101325.676662838
101325.626101284
101325.579666776
101325.5346795132
101325.4799617943
101325.4363055761
101325.3923833827
101325.3393982109
101325.2985287848
101325.2597323525
101325.2168670169
101325.1766469948
101325.151255489
101325.1200958859
101325.0940221551
101325.0770773407
101325.0691786018
101325.0634163869
101325.065726143
101325.0796785568
101325.0975189647
101325.130967289
101325.1673123861
101325.2178989815
101325.2645238679
101325.3172357898
101325.3600318605
101325.4081298024
101325.4618939864
101325.5006831499
101325.5498040861
101325.5927501274
101325.6365636958
101325.6713108826
101325.7153425515
101325.7426850507
101325.7691782429
101325.7996191192
101325.8135277731
101325.8252300853
101325.8283802353
101325.8341873976
101325.8149160048
101325.8017448328
101325.7767078497
101325.7378622123
101325.6907330363
101325.6467224576
101325.5974187397
101325.5449635532
101325.5035559397
101325.4547597366
101325.4059978704
101325.3607075258
101325.3205107627
101325.2735832153
101325.2337013469
101325.2004147602
101325.163161358
101325.1344298284
101325.1084500277
101325.0896334058
101325.0763550702
101325.0709158947
101325.0685728918
101325.0785215139
101325.0981782449
101325.1207920374
101325.155294238
101325.2053892168
101325.250521754
101325.2990543362
101325.3467936991
101325.3956870896
101325.4369442874
101325.4888814697
101325.5344705278
101325.573590906
101325.6180377881
101325.6611298205
101325.6941877858
101325.7271730345
101325.7616712923
101325.7828020166
101325.8031270356
101325.8193373373
101325.824830134
101325.8243347023
101325.8194044815
101325.8053971295
101325.7769319552
101325.7507701566
101325.7090597562
101325.6569309732
101325.6105644045
101325.5682260954
101325.5156235139
101325.4706191991
101325.4250751697
101325.3801546605
101325.3335350531
101325.2934321066
101325.2525743973
101325.2116066132
101325.1808543034
101325.1489321105
101325.1215499175
101325.0999094153
101325.0873821274
101325.0748424907
101325.0740705325
101325.0809354548
101325.0940218854
101325.1146224869
101325.1477014178
101325.1909620962
101325.2340852254
101325.2844613976
101325.3316241927
101325.3773926234
101325.4202130924
101325.4738143852
101325.5117106442
101325.5563420455
101325.6022932304
101325.6410416315
101325.6769691728
101325.7116087945
101325.7466810363
101325.7678133994
101325.7929678828
101325.8069124479
101325.818618591
101325.8204371286
101325.8188231604
101325.8056274688
101325.7834338856
101325.7608894993
101325.721479432
101325.6731955733
101325.6271265311
101325.5826882219
101325.5331993254
101325.4864612589
101325.4441080686
101325.3958228905
101325.3520182891
101325.3106292325
101325.2688610422
101325.2295157488
101325.1969453456
101325.1620888637
101325.1342320964
101325.1137985635
101325.0949501776
101325.0837360216
101325.0776563657
101325.0836091755
101325.0919389544
101325.1105875317
101325.1397958438
101325.1740614959
101325.2242936947
101325.2672036621
101325.317720248
101325.3594133725
101325.4093470884
101325.4534733208
101325.4971686056
101325.5436473283
101325.5830142604
101325.626464567
101325.6612487056
101325.7010941418
101325.7275644807
101325.7594406844
101325.7816823469
101325.7976228592
101325.8112095993
101325.8165583587
101325.8165695947
101325.803335107
101325.7925623787
101325.7633769622
101325.7343994044
101325.6871515346
101325.6430351782
101325.5962844998
101325.5501862966
101325.5043032732
101325.4584614569
101325.4158584934
101325.3683665706
101325.3286455886
101325.2865806517
101325.247817027
101325.2108078461
101325.1796621367
101325.1490062488
101325.125637452
101325.1061201943
101325.0912673649
101325.0866371583
101325.0840086239
101325.0938535784
101325.1078586847
101325.1327098612
101325.1637537008
101325.2101362433
101325.2536579696
101325.3009712451
101325.3457322026
101325.3927942827
101325.435712158
101325.4819576228
101325.5252725304
101325.5668904687
101325.609064486
101325.6462106879
101325.6835908186
101325.7148123923
101325.7454069571
101325.7686832792
101325.789188785
101325.8023821034
101325.8112925191
101325.8124719469
101325.8051229201
101325.7943651616
101325.7705227905
101325.7425940096
101325.7038699033
101325.6559219035
101325.610684647
101325.5619222167
101325.518279157
101325.4700161832
101325.4247608787
101325.3798861645
101325.3345671353
101325.2921943245
101325.2493118161
101325.2108047326
101325.1711011091
101325.1381205858
101325.1044808221
101325.0772717351
101325.0519163766
101325.0319972378
101325.0167772694
101325.0048879046
101325.0000558602
101325.0000000007
101325.0000000002
101325.0000000001
101325.0000000002
101325.0000000001
101325.0000000002
101325.0000000002
101325.0000000002
101325.0000000002
101325.0000000002
101325.0000000002
101325.0000000002
101325.0000000002
101325.0000000002
101325.0000000002
101325.0000000002
101325.0000000002
101325.0000000002
101325.0000000002
101325.0000000002
101325.0000000002
101325.0000000002
101325.0000000002
101325.0000000002
101325.0000000002
101325.0000000002
101325.0000000002
101325.0000000002
101325.0000000002
101325.0000000002
101325.0000000002
101325.0000000002
101325.0000000002
101325.0000000002
101325.0000000002
101325.0000000002
101325.0000000002
101325.0000000002
101325.0000000002
101325.0000000002
101325.0000000002
101325.0000000002
101325.0000000002
101325.0000000002
101325.0000000002
101325.0000000002
101325.0000000002
101325.0000000002
101325.0000000002
101325.0000000002
101325.0000000002
101325.0000000002
101325.0000000002
101325.0000000002
101325.0000000002
101325.0000000003
101325.0000000002
101325.0000000002
101325.0000000002
101325.0000000002
101325.0000000002
101325.0000000002
101325.0000000002
101325.0000000002
101325.0000000002
101325.0000000003
101325.0000000002
101325.0000000002
101325.0000000002
101325.0000000002
101325.0000000002
101325.0000000002
101325.0000000002
101325.0000000003
101325.0000000003
101325.0000000002
101325.0000000003
101325.0000000002
101325.0000000002
101325.0000000002
101325.0000000002
101325.0000000002
101325.0000000002
101325.0000000002
101325.0000000002
101325.0000000002
101325.0000000002
101325.0000000003
101325.0000000002
101325.0000000003
101325.0000000002
101325.0000000003
101325.0000000002
101325.0000000002
101325.0000000002
101325.0000000002
101325.0000000002
101325.0000000003
101325.0000000002
101325.0000000002
101325.0000000003
101325.0000000002
101325.0000000002
101325.0000000002
101325.0000000003
101325.0000000002
101325.0000000002
101325.0000000002
101325.0000000002
101325.0000000002
101325.0000000002
101325.0000000003
101325.0000000002
101325.0000000002
101325.0000000002
101325.0000000002
101325.0000000003
101325.0000000003
101325.0000000002
101325.0000000002
101325.0000000003
101325.0000000002
101325.0000000003
101325.0000000002
101325.0000000003
101325.0000000003
101325.0000000003
101325.0000000003
101325.0000000003
101325.0000000003
101325.0000000003
101325.0000000003
101325.0000000003
101325.0000000003
101325.0000000002
101325.0000000003
101325.0000000002
101325.0000000003
101325.0000000003
101325.0000000003
101325.0000000002
101325.0000000003
101325.0000000003
101325.0000000002
101325.0000000003
101325.0000000002
101325.0000000003
101325.0000000002
101325.0000000003
101325.0000000003
101325.0000000003
101325.0000000003
101325.0000000002
101325.0000000002
101325.0000000002
101325.0000000002
101325.0000000003
101325.0000000003
101325.0000000002
101325.0000000002
101325.0000000002
101325.0000000002
)
;

boundaryField
{
    inlet
    {
        type            calculated;
        value           uniform 101325.0058879361;
    }
    outlet
    {
        type            calculated;
        value           uniform 101325.0000000002;
    }
    frontAndBack
    {
        type            empty;
    }
}


// ************************************************************************* //
