/*--------------------------------*- C++ -*----------------------------------*\
| =========                 |                                                 |
| \\      /  F ield         | OpenFOAM: The Open Source CFD Toolbox           |
|  \\    /   O peration     | Version:  v2012                                 |
|   \\  /    A nd           | Website:  www.openfoam.com                      |
|    \\/     M anipulation  |                                                 |
\*---------------------------------------------------------------------------*/
FoamFile
{
    version     2.0;
    format      ascii;
    class       volScalarField;
    location    "0.006";
    object      rho;
}
// * * * * * * * * * * * * * * * * * * * * * * * * * * * * * * * * * * * * * //

dimensions      [1 -3 0 0 0 0 0];


internalField   nonuniform List<scalar> 
1000
(
1.176235453648669
1.176287064165488
1.176248120216528
1.176167075075799
1.176145398025565
1.176094047331549
1.176055157014316
1.176051841160048
1.176010298262793
1.176007457597529
1.176009347655401
1.176008550735798
1.176019539270436
1.176033703000878
1.176045565308096
1.176089271723516
1.176116962604518
1.176161155794414
1.176215336641226
1.17625683451999
1.176313080968124
1.176366900383691
1.176421775887663
1.176478197070779
1.176530708405791
1.176585056101198
1.176633188666569
1.17667791651561
1.176720452393448
1.176754691020368
1.176798925886002
1.176808864337155
1.176808423178948
1.176807835291785
1.176807271665132
1.176793182582797
1.176789517136648
1.176774014946353
1.176738558579653
1.176722187052585
1.176675310153066
1.176626830881484
1.176584168525782
1.176520892625996
1.176469620326354
1.176413365678306
1.176355782364807
1.176303984395953
1.176249854582943
1.176199534330387
1.176152410925843
1.176109003694975
1.176062459179952
1.176023131137805
1.176018815925165
1.176019546533398
1.176021593150812
1.176021430764474
1.176033813712839
1.176040913332779
1.176050260910089
1.176083780701628
1.176099244856236
1.176137970009012
1.176185373409497
1.176223060940208
1.176285091144875
1.176338181381348
1.176394430474757
1.176455940274508
1.17650850444559
1.176563527273854
1.176614494816147
1.176661929360376
1.176706694477286
1.176756552395671
1.176798824908518
1.176800413024642
1.176799963799156
1.176800579136493
1.176793379160525
1.176792421056138
1.176780504848458
1.176763249705082
1.17675418953771
1.176719301578933
1.176691036716385
1.176658434847654
1.176603424143182
1.176561366442555
1.176503439644659
1.176443253620567
1.176387852869507
1.176325523714824
1.176269714831863
1.176215515131022
1.176162938887609
1.176118373867627
1.176061388563966
1.176027879736168
1.176027266359258
1.176027574920089
1.176028174374152
1.176034130042401
1.176034440967394
1.176047057999887
1.17606040861374
1.176072276945884
1.176105164667697
1.176124840678635
1.176162234857225
1.176210418809486
1.17624808731539
1.176308178252371
1.176362891959329
1.176419246666273
1.17648274797438
1.176538574606052
1.176596327613407
1.176649945032085
1.176696305240407
1.176755691611567
1.176791126243349
1.17679395760221
1.17679368585819
1.176791251320128
1.176791643132116
1.176782850916425
1.176775925404702
1.176767451181786
1.176743696445067
1.176730489930017
1.176699440155672
1.176664026976264
1.176633077582523
1.176579517149368
1.176533197842556
1.176480544609344
1.176415442411543
1.176360850789136
1.17629793222976
1.176236705800925
1.176181170744273
1.176127117071728
1.176058817158124
1.176033282074972
1.176033683926411
1.176032780412796
1.176034374070913
1.17603992874874
1.176039844628529
1.176050197978571
1.176063820061803
1.17607216250903
1.176100198187733
1.176121234032703
1.176149552244283
1.176194937987977
1.176229153277418
1.17628135462892
1.176335644527357
1.176388025100377
1.176451219293519
1.17650955971221
1.176569594621755
1.176630021169212
1.176681835534285
1.176752719058145
1.176787872214354
1.176789004384695
1.17678896495413
1.176786514763686
1.176786338258001
1.176780824838053
1.176770886846263
1.176766305012469
1.176747026269835
1.176727250944928
1.176713551863333
1.176672778699703
1.176641205885733
1.176607360804253
1.176548999566125
1.176505390542947
1.176448126673215
1.176384835049331
1.176328172763885
1.176263002812152
1.176200935399648
1.176145192396279
1.176066215819374
1.176037776551879
1.176037684389014
1.176038431462311
1.176038308051679
1.176043220489004
1.176046584755249
1.176050751455222
1.176066989020136
1.176074296306373
1.176093904225244
1.176120741510868
1.176140043116261
1.176180708300725
1.176216815448758
1.176257444893883
1.176313897469889
1.176361307512068
1.176421376249959
1.176482686858204
1.176540432662601
1.176606054585634
1.1766620242517
1.176736882518923
1.176782382621011
1.17678349352025
1.176782790748122
1.176782496830559
1.176779621649877
1.176775462497259
1.176771030867797
1.17675856023948
1.176749189307847
1.176732521788482
1.176708324300064
1.176687870374229
1.176651850238674
1.176616286531671
1.176576432706658
1.176523368905316
1.176475385864514
1.17641525804807
1.176354190642531
1.176294011983058
1.176225089913637
1.176166751454496
1.17608437614352
1.176042951947188
1.176042386489661
1.176042939624759
1.176042836614162
1.176047237589103
1.176050113628428
1.176054471197022
1.176066986440012
1.176075395783814
1.176093844586097
1.17611352041767
1.176136570630605
1.176170564883987
1.176202144901786
1.176244777737062
1.176291624848987
1.176340071683594
1.176396863794714
1.17645481443687
1.176515978110952
1.176578743829256
1.176640164248884
1.176711562812029
1.176775109515942
1.17677863782625
1.176778858449719
1.176777391683274
1.176776455198993
1.176772302947984
1.176765867538605
1.17676023483988
1.176746535722728
1.176732601940532
1.176716131041823
1.176687783640971
1.176664631340538
1.176627811722688
1.176588206915956
1.176547751856154
1.176491788681785
1.176441736540353
1.176382249803198
1.176316697059613
1.176255768958458
1.176189563967316
1.176114354818064
1.176050084296152
1.176046902947958
1.176047280318848
1.176047265210872
1.176050485797671
1.176054083476797
1.176056006894808
1.176069120228029
1.176076634125811
1.176089579135432
1.176114427122168
1.176129578821129
1.176159896071976
1.176196794668544
1.176226723885315
1.176275162502625
1.176322228012526
1.176371653470796
1.176432153533714
1.17648939495788
1.176552322337463
1.176616925697324
1.176680290195995
1.176762061615716
1.176773039079534
1.176772934544995
1.176772184230829
1.176771979370334
1.176767753419855
1.176764739592175
1.176757706506484
1.176745137475179
1.176736788346311
1.176715514576031
1.176695151954139
1.176670958589801
1.176636979456455
1.176604038538717
1.176559931276565
1.176514297063787
1.176462952811013
1.176404995811222
1.176345885778739
1.176281288594891
1.176215593910888
1.176149452482682
1.176063717281391
1.17605214866139
1.17605134569726
1.176051569112371
1.176054128941816
1.176056753302396
1.176059499968592
1.176070330452131
1.17607584679539
1.176089754338053
1.176109814617303
1.176124591376531
1.176155992097812
1.176183872373868
1.176215994112408
1.176262610130303
1.176301568787196
1.176352730045703
1.176409233287211
1.176462632279443
1.176526169620701
1.176589820306153
1.176647620649808
1.176734451525932
1.17676920426614
1.176768935112427
1.176770250750216
1.176768588466617
1.176765681047662
1.176762978832479
1.176756102833647
1.176746651557558
1.176736341181351
1.176718848647846
1.176700513351943
1.17667681226846
1.176646098447797
1.176614479002827
1.176574037788649
1.176530073757672
1.176481593254665
1.176427087756382
1.176368891716169
1.176307475484161
1.176241920043041
1.176180382139395
1.176091492174984
1.176056698195331
1.176056627530016
1.176055242050021
1.176057499302294
1.176060209952531
1.176062585567384
1.176070305404514
1.176078470843829
1.17609028890673
1.176106250204805
1.176124148947162
1.176148536162999
1.176176263044068
1.176207971625821
1.176246550599127
1.176288075889851
1.17633520670043
1.176386973864335
1.176442453716328
1.176501565383409
1.176563326242838
1.176624634709302
1.176697245904778
1.176762012825689
1.176765276592833
1.176764890519105
1.17676463423412
1.17676252328949
1.176758306731614
1.176755552865704
1.176744222356459
1.176735058390267
1.176723789358471
1.176699233237715
1.176683708541479
1.176656586580358
1.17661862163449
1.176590829489859
1.176544780639731
1.176496585782264
1.176450359633071
1.176389531182235
1.17633149940068
1.17626906308237
1.176203999133163
1.176131037474419
1.176063404643376
1.176060060118012
1.17606045553847
1.176060453573957
1.176063164621564
1.176066811017172
1.176069614464385
1.176080609461584
1.176089726384026
1.176102208956823
1.176122964886759
1.176142750806054
1.176167415751832
1.176201021982654
1.176234074881159
1.176272431445802
1.176321298951275
1.176366606102656
1.176419485510865
1.176479749239577
1.176535342125569
1.17659933628481
1.176660156244302
1.176742778813094
1.176760782925798
1.176760794613845
1.176760682127404
1.176758654416256
1.176756658427059
1.176753288216101
1.176743946614489
1.176735151350882
1.176727288024624
1.176703233589742
1.176688422059112
1.176664058978413
1.176629572461146
1.176602309647401
1.176557944449994
1.176514858803853
1.176469021313507
1.176410490544363
1.176356223457951
1.176294435429465
1.176228415695712
1.176167992450407
1.17608073248737
1.176064858848381
1.176064466867345
1.176064861868799
1.176066366534525
1.176069883442759
1.176072834452177
1.176081522392864
1.176089813082231
1.176101693285762
1.176119838362744
1.17613693601221
1.176163346313793
1.176190696068812
1.17622313327108
1.176262621665796
1.176302589230645
1.176350482160201
1.176400985329823
1.176454899837501
1.176513664114709
1.176574069387075
1.176631979556354
1.176712263863355
1.176754978756436
1.176755376857589
1.176755635411568
1.176754694326396
1.176752561915801
1.176749139327758
1.176743521107474
1.176735116568356
1.176723674820596
1.176709490919818
1.176690148945246
1.176667972967239
1.176641125632951
1.176608288123859
1.176573114760812
1.176530600468472
1.176483842930462
1.17643437953286
1.176377241645083
1.176318816211089
1.176256885854529
1.176195776754047
1.176113466867223
1.17606968057132
1.176068964389104
1.176069718000969
1.176069914184031
1.176072449079832
1.1760768525382
1.17608031500923
1.176091655150929
1.176101558902591
1.176114840540182
1.176136335919319
1.176155462093226
1.176183388915646
1.176214574589293
1.176248293967613
1.176290469397218
1.176332761442261
1.17638310354733
1.176435367321266
1.17649070566679
1.176551167644477
1.176609087176272
1.176675118160385
1.176744959550013
1.176751792559076
1.176751639801398
1.176750123204783
1.17675005614881
1.176745234971066
1.176739935376934
1.176735899404561
1.176720797671247
1.176711763785042
1.176695262417366
1.176669684627531
1.176651462621881
1.176616834929074
1.176583275870945
1.176548108272359
1.176497515900273
1.176453648642143
1.17639995115617
1.176339130067624
1.176283022678171
1.176219677982924
1.17615029835922
1.176080701943683
1.176073315082492
1.176072807064097
1.176075150687953
1.176075446208554
1.176077693649749
1.176085624908336
1.17608960906701
1.176100474406748
1.176117224670846
1.17612764181886
1.176151920097061
1.176178860932471
1.176201723354198
1.176240594523296
1.17627654488149
1.176316991011481
1.176366354387391
1.176413945261407
1.176469126505229
1.176525692334741
1.176584517343497
1.176641395867111
1.17672276014454
1.176746885320348
1.176747146176925
1.176747107937234
1.176744760722496
1.176744656245443
1.176738781366813
1.176731522313294
1.176727295859428
1.176709781474956
1.176697631861919
1.176680943656327
1.176651262515648
1.176630378887252
1.176594976428278
1.176556228657165
1.176519550780023
1.176467632795021
1.176419700095651
1.176364907714684
1.176304233413125
1.17624553396622
1.176185378802576
1.176101079419409
1.176078731666524
1.176078311012619
1.176078092455087
1.176079652968042
1.176083403885067
1.1760845437303
1.176092728896282
1.176102899260231
1.17610964151515
1.176129529865953
1.176147389183205
1.176167482827107
1.176197958870363
1.176226330438002
1.176262825514905
1.176303437424597
1.176346417513694
1.17639576528956
1.176447632934444
1.176502628595173
1.176560740570957
1.176616771800329
1.17668996188807
1.176739445508508
1.176743041618844
1.176742875863818
1.176741176294908
1.176741666881833
1.176735141907095
1.17673144292043
1.176725759602613
1.176709819200634
1.176701905285795
1.176681986523653
1.176658616157568
1.176637765895329
1.176603948225025
1.176570390629908
1.176531848562635
1.176486478122069
1.17643820967348
1.176385011065634
1.176329219606001
1.176268087630277
1.176211204644128
1.176133816643395
1.176084250366983
1.176082477469523
1.176082395569148
1.17608426270781
1.176084692453631
1.176088148663055
1.176095744703
1.176099457089585
1.176113011338771
1.17612698402871
1.176139801017894
1.176166822145877
1.176188205649694
1.17621613576558
1.176255594418659
1.176288040344539
1.176331939859288
1.176380628066901
1.17642659586717
1.176482977595661
1.17653780388528
1.176594355755037
1.176653965907131
1.176726581584887
1.176738860878346
1.176738596867542
1.176738340373191
1.176737242335564
1.176732131802774
1.176731392869866
1.176722802417256
1.176711246110385
1.176704133528903
1.176683538432056
1.176665839010401
1.176642455931012
1.176612719989048
1.176583374174592
1.176541804967781
1.176502420678154
1.176456927150555
1.176402890925233
1.176351098426982
1.176293069381821
1.176232575715514
1.176172035758031
1.176096337703953
1.176087992781229
1.176088445374461
1.176088047765965
1.176089533065658
1.176093622021514
1.1760953038017
1.176104036889061
1.176114523956164
1.17612054575055
1.176142676751415
1.176159457061052
1.176179957310201
1.17621151508334
1.176239436846958
1.176276605110403
1.176316869903303
1.176359745339599
1.176409043984715
1.176459571313171
1.176514017906064
1.176571138566621
1.176624509799669
1.176700123492952
1.176734811127061
1.176735313060976
1.176734827701263
1.176733531898906
1.176733346740291
1.176725990484287
1.176721727025292
1.176716375436181
1.176698839981142
1.17669026364007
1.176670580478311
1.176645521987034
1.176624699082417
1.176589491087289
1.176556007145033
1.176517706177123
1.176470437521001
1.176424868396097
1.176370796610684
1.176315576226634
1.176257496042213
1.176201162588853
1.176121476200211
1.176091123948453
1.176091087060988
1.17608988776371
1.176092189449217
1.17609446998695
1.176097014597367
1.17610454490171
1.176111633553997
1.176123757665444
1.176137742325653
1.176154519796675
1.176177791217048
1.17620126099119
1.176232004604981
1.17626605357319
1.176302441140296
1.176347126729752
1.176390897168908
1.176441034448747
1.176494820096015
1.176547304967218
1.176603759374584
1.17666665998857
1.176726014940645
1.176730349631861
1.17673053953621
1.176729025792544
1.17672788018725
1.176726070571203
1.176717867647207
1.176713802851106
1.176703145448784
1.176686540911605
1.176677900970051
1.176652063562248
1.176626584516915
1.176605164421305
1.176564670190589
1.176530610080587
1.176489889716049
1.176439610844008
1.176393208392454
1.176337106986154
1.176280053758827
1.176225648350919
1.176155473502587
1.176098110207535
1.176095464087872
1.176095284216621
1.176096570626434
1.176097215869075
1.176101089478782
1.176105857410689
1.176112096568213
1.176123802357071
1.176133674389145
1.176151865186704
1.176172342290614
1.176192422081081
1.176224919828089
1.176254308331775
1.176289241844864
1.176332191568598
1.176373618555434
1.176422064927048
1.176473200941102
1.176525583645628
1.176582438618997
1.176634500690376
1.176711345858871
1.176733165792067
1.176733298918001
1.176733872111685
1.17673188145961
1.176730673517995
1.176728363514848
1.176721799714959
1.176717488179954
1.176707294480235
1.176695688338989
1.176683559883697
1.176664674494005
1.176646445764468
1.176623422358637
1.176597555785454
1.176570135581854
1.176538850542413
1.176506620780145
1.17647528914056
1.176430440931137
1.176411930162798
1.176411716174255
1.176411716172158
1.176411716172159
1.176411716172158
1.176411716172159
1.176411716172162
1.176411716172165
1.17641171617217
1.176411716172178
1.176411716172179
1.176411716172181
1.176411716172189
1.176411716172193
1.176411716172193
1.176411716172193
1.176411716172194
1.176411716172192
1.176411716172193
1.176411716172193
1.176411716172193
1.176411716172194
1.176411716172193
1.176411716172193
1.176411716172194
1.176411716172194
1.176411716172193
1.176411716172193
1.176411716172193
1.176411716172194
1.176411716172194
1.176411716172193
1.176411716172194
1.176411716172193
1.176411716172193
1.176411716172193
1.176411716172194
1.176411716172194
1.176411716172194
1.176411716172193
1.176411716172195
1.176411716172195
1.176411716172194
1.176411716172193
1.176411716172193
1.176411716172195
1.176411716172193
1.176411716172194
1.176411716172194
1.176411716172195
1.176411716172195
1.176411716172192
1.176411716172196
1.176411716172194
1.176411716172195
1.176411716172193
1.176411716172196
1.176411716172195
1.176411716172194
1.176411716172194
1.176411716172195
1.176411716172194
1.176411716172195
1.176411716172195
1.176411716172195
1.176411716172194
1.176411716172196
1.176411716172194
1.176411716172196
1.176411716172195
1.176411716172194
1.176411716172196
1.176411716172194
1.176411716172196
1.176411716172195
1.176411716172196
1.176411716172195
1.176411716172195
1.176411716172196
1.176411716172194
1.176411716172196
1.176411716172195
1.176411716172195
1.176411716172195
1.176411716172195
1.176411716172194
1.176411716172195
1.176411716172194
1.176411716172195
1.176411716172195
1.176411716172194
1.176411716172195
1.176411716172195
1.176411716172194
1.176411716172196
1.176411716172195
1.176411716172194
1.176411716172195
1.176411716172195
1.176411716172194
1.176411716172197
1.176411716172195
1.176411716172195
1.176411716172194
1.176411716172195
1.176411716172194
1.176411716172195
1.176411716172195
1.176411716172196
1.176411716172193
1.176411716172195
1.176411716172194
1.176411716172194
1.176411716172196
1.176411716172194
1.176411716172196
1.176411716172194
1.176411716172195
1.176411716172195
1.176411716172195
1.176411716172195
1.176411716172195
1.176411716172195
1.176411716172195
1.176411716172196
1.176411716172196
1.176411716172195
1.176411716172195
1.176411716172196
1.176411716172195
1.176411716172196
1.176411716172195
1.176411716172195
1.176411716172196
1.176411716172195
1.176411716172196
1.176411716172196
1.176411716172195
1.176411716172196
1.176411716172194
1.176411716172195
1.176411716172194
1.176411716172196
1.176411716172195
1.176411716172196
1.176411716172193
1.176411716172195
1.176411716172195
1.176411716172195
1.176411716172195
1.176411716172193
1.176411716172195
1.176411716172195
1.176411716172193
1.176411716172194
1.176411716172194
1.176411716172194
1.176411716172193
1.176411716172194
1.176411716172194
1.176411716172194
1.176411716172194
1.176411716172194
)
;

boundaryField
{
    inlet
    {
        type            calculated;
        value           uniform 1.176271021779363;
    }
    outlet
    {
        type            calculated;
        value           uniform 1.176411716172194;
    }
    frontAndBack
    {
        type            empty;
    }
}


// ************************************************************************* //
