/*--------------------------------*- C++ -*----------------------------------*\
| =========                 |                                                 |
| \\      /  F ield         | OpenFOAM: The Open Source CFD Toolbox           |
|  \\    /   O peration     | Version:  v2012                                 |
|   \\  /    A nd           | Website:  www.openfoam.com                      |
|    \\/     M anipulation  |                                                 |
\*---------------------------------------------------------------------------*/
FoamFile
{
    version     2.0;
    format      ascii;
    class       volScalarField;
    location    "0.006";
    object      T;
}
// * * * * * * * * * * * * * * * * * * * * * * * * * * * * * * * * * * * * * //

dimensions      [0 0 0 1 0 0 0];


internalField   nonuniform List<scalar> 
1000
(
299.9822011293932
299.9857619406204
299.9807884873309
299.9726306351196
299.971199842124
299.9667685591039
299.9632202448195
299.9631995429451
299.9588855727609
299.9586279964496
299.9589140493581
299.958966895033
299.9601662113441
299.9616303233968
299.9628177257749
299.9672261427285
299.9700120527139
299.9744874934403
299.9799869272322
299.9841948886927
299.989914171339
299.995393294166
300.0009887275847
300.0067494583469
300.0121161025784
300.0176722163582
300.0225920004389
300.0271620079737
300.0315088613698
300.0350093905994
300.0395242542898
300.0405378396534
300.0404929694744
300.0404298446481
300.0403698090954
300.0389300104857
300.0385539590649
300.0369714178478
300.0333534421232
300.031682930837
300.0269000686338
300.0219536998118
300.0176005369215
300.0111438945981
300.0059118005819
300.0001709460145
299.994294212357
299.9890075372154
299.9834827098964
299.9783465875473
299.9735367119815
299.9691061120084
299.9643551316416
299.9603408314332
299.9599003802119
299.9599749856091
299.9601839829055
299.9601674580429
299.9614314754498
299.9621561818951
299.9631102784634
299.9665318249889
299.9681102223031
299.9720628942754
299.9769013900143
299.9807478671627
299.9870790046982
299.9924974419583
299.9982380670766
300.0045155359999
300.0098797959768
300.015494864315
300.0206959492859
300.0255363635374
300.030104296268
300.0351917194362
300.039505152394
300.0396671932579
300.039621361262
300.0396841443752
300.0389494858969
300.0388517214659
300.0376358225568
300.0358751624452
300.0349506247589
300.0313907225317
300.0285065574793
300.0251796604622
300.0195662295891
300.0152742686324
300.0093628385758
300.0032207494617
299.9975667182926
299.9912055362253
299.9855095822111
299.9799777370649
299.9746114680124
299.9700626654868
299.9642460741809
299.9608257168766
299.9607631059373
299.96079460689
299.9608557965922
299.9614637264277
299.9614954663361
299.9627833462176
299.9641461039336
299.9653575113666
299.968714500115
299.9707228044333
299.9745395654161
299.9794576739358
299.9833021807131
299.9894352819276
299.9950193614572
300.0007706740833
300.0072512877788
300.0129484110236
300.0188420128176
300.0243134243075
300.0290440941435
300.035103898429
300.0387196078567
300.0390085157916
300.0389807932588
300.038732393625
300.0387723828981
300.0378752632666
300.0371686221551
300.0363039205876
300.0338800633506
300.0325324622248
300.0293641430013
300.0257505496808
300.0225922620145
300.0171267276444
300.0123998899046
300.0070264830965
300.0003826595805
299.994811137405
299.9883896448602
299.982140761117
299.9764725114602
299.9709552048962
299.9639838207574
299.9613773612231
299.9614183890133
299.9613261752849
299.9614888651738
299.9620558707423
299.9620472949967
299.9631041138591
299.9644945908202
299.9653461139733
299.9682078231845
299.9703549766925
299.9732453514023
299.9778778785635
299.9813700160753
299.9866978863976
299.9922388193766
299.9975846104012
300.0040339722451
300.009987723073
300.0161142563009
300.0222806070832
300.0275677998073
300.0348008552214
300.0383878500791
300.0385033826784
300.0384993641831
300.0382493629843
300.0382313698491
300.0376688101082
300.036654773722
300.0361872555474
300.0342201122526
300.032202281025
300.0308043605572
300.0266438821654
300.0234221064031
300.0199682447656
300.0140127753003
300.0095624085971
300.0037184405394
299.9972592616483
299.9914762767808
299.9848249819159
299.9784901377721
299.9728003425715
299.964739277143
299.96183638176
299.9618269788177
299.9619032477491
299.9618906610486
299.9623921053217
299.9627355211866
299.9631608316842
299.9648182834736
299.965564158869
299.9675655821269
299.9703049396488
299.9722750035402
299.9764256851948
299.9801110241531
299.9842577670647
299.9900195309517
299.9948581050716
300.0009885330201
300.0072455386281
300.0131384777785
300.0198350938377
300.0255463980411
300.0331850505877
300.037827873627
300.0379412258166
300.0378695215878
300.037839536465
300.037546166087
300.0371217848632
300.0366695969841
300.0353971368934
300.034440947771
300.0327402056805
300.0302711199614
300.0281839453708
300.0245083686066
300.0208792970088
300.016812292714
300.0113972500404
300.0065004549974
300.0003641793675
299.9941317999176
299.9879898960364
299.9809555526496
299.9750009427078
299.966592973351
299.9623647214797
299.9623070030751
299.9623634710733
299.9623529628699
299.9628021972765
299.9630957770868
299.9635405680512
299.9648180563044
299.9656764207863
299.9675595389853
299.9695678849104
299.9719206055087
299.975390399075
299.978613650602
299.9829649836365
299.9877463718249
299.9926908353117
299.998486927166
300.0044010799721
300.0106429340905
300.0170480781689
300.0233157875905
300.0306013344077
300.0370857355273
300.0374457490665
300.0374682649997
300.0373186052037
300.0372230539189
300.036799373606
300.0361427244477
300.0355679728402
300.0341701377023
300.0327483560582
300.0310676441381
300.0281750710721
300.0258125325161
300.0220553172011
300.0180138210188
300.013885393158
300.008174393404
300.0030663541161
299.9969953499908
299.9903051795751
299.9840866258249
299.9773293866066
299.9696527452579
299.9630926578926
299.962767916817
299.9628064386324
299.9628049
299.9631336422453
299.9635008762514
299.9636972064495
299.9650357458703
299.9658027068717
299.9671240236115
299.969660336247
299.9712068422456
299.9743012924356
299.9780675017162
299.9811221732941
299.9860660378368
299.9908696315929
299.9959138727093
300.0020883343005
300.0079299209863
300.014351663615
300.0209443614807
300.0274099869778
300.0357542172342
300.0368743180918
300.0368636502653
300.0367870872676
300.0367661824349
300.0363349791249
300.0360274572235
300.0353098140506
300.034027304893
300.0331753511045
300.0310045879968
300.028926779623
300.0264580151194
300.022990690059
300.0196291902702
300.0151281822001
300.0104712229844
300.0052314021026
299.9993166443977
299.9932839333587
299.9866910847738
299.9799860805268
299.9732348704668
299.9644840527732
299.9633031829711
299.9632212204293
299.9632440205967
299.963505310853
299.9637731889011
299.9640535450325
299.9651590540382
299.9657221206573
299.9671416906758
299.9691892943198
299.9706975402079
299.9739026297264
299.9767483131146
299.9800268125588
299.9847847247551
299.9887608757994
299.9939823692895
299.9997489903989
300.0051984873954
300.0116826158909
300.0181781063899
300.0240760995677
300.0329366401743
300.0364827841147
300.0364553182129
300.0365895627662
300.0364199464955
300.0361232807406
300.0358475526978
300.035145939961
300.0341815508854
300.0331294879524
300.0313445614724
300.0294736139858
300.0270551011806
300.0239209826526
300.0206943567946
300.0165674656432
300.0120809844901
300.0071334669047
300.0015709793334
299.9956316452809
299.9893635381169
299.9826727828796
299.9763916240731
299.967318819727
299.9637673222464
299.963760109722
299.9636186866701
299.9638490937767
299.9641257808943
299.9643682649781
299.9651562547277
299.965989723517
299.9671960202226
299.9688252203316
299.9706521538934
299.9731413550397
299.975971397117
299.979207774358
299.9831453418664
299.9873835256523
299.9921937169981
299.9974769767032
300.0031389924794
300.0091714762901
300.0154741166589
300.0217304445998
300.0291397638535
300.0357487268045
300.0360817451877
300.0360423493676
300.0360162003435
300.0358008048103
300.0353705563668
300.0350895569779
300.0339334149776
300.0329983265549
300.0318484236832
300.0293427394238
300.0277585478838
300.0249909238593
300.0211168878475
300.0182807334464
300.0135815476075
300.0086632825026
300.0039456745088
299.9977378419788
299.991815181146
299.9854427702711
299.9788020941264
299.9713548389727
299.9644516223902
299.9641102236855
299.9641505808577
299.9641503769294
299.9644271016477
299.9647993010372
299.9650854531098
299.9662077520516
299.9671383343939
299.9684124444576
299.9705310408548
299.9725505736671
299.9750680814011
299.9784982077467
299.9818717551044
299.9857865339736
299.9907740736228
299.9953980414874
300.0007947056405
300.0069448583756
300.0126181038891
300.0191486392611
300.0253547231663
300.0337858596582
300.0356229627379
300.0356241530411
300.0356126714497
300.0354057650031
300.035202092913
300.0348582012629
300.0339050001784
300.0330075451869
300.0322051494557
300.0297506540181
300.0282392528841
300.0257531545601
300.0222340591367
300.0194519505705
300.0149246303194
300.0105277667277
300.0058498899015
299.9998766300794
299.9943381779918
299.988032052648
299.9812939679324
299.9751264067693
299.9662200369
299.9645997551717
299.9645597445208
299.9646000628215
299.9647536471712
299.9651126282465
299.9654138430147
299.9663006475488
299.967146901293
299.9683595293454
299.9702116306237
299.9719567779715
299.9746524612077
299.9774439841208
299.9807547055536
299.9847850791375
299.9888642334809
299.993752185811
299.9989064096903
300.0044085995137
300.0104056380429
300.0165699298335
300.0224792918963
300.0306717822576
300.0350304444292
300.0350710616442
300.0350974428147
300.0350014128858
300.0347838252167
300.034434589722
300.0338613147441
300.0330037239123
300.0318362148953
300.0303888856117
300.0284152093022
300.0261523208713
300.0234127168289
300.0200618144864
300.0164724666345
300.0121339379351
300.0073622772707
300.002314323015
299.9964830332619
299.9905202009934
299.9841994252217
299.9779621801624
299.9695609760826
299.9650916810337
299.9650185751969
299.9650954981614
299.9651155237588
299.9653742690422
299.9658237445294
299.9661771634422
299.9673346822911
299.9683455741156
299.9697012310489
299.9718952877371
299.9738474710207
299.9766979037838
299.979880928457
299.9833224635464
299.9876270284072
299.9919433625287
299.9970811991191
300.0024150201344
300.008062404587
300.0142325745742
300.0201431254933
300.026880989095
300.0340078442848
300.0347050608309
300.0346894754801
300.0345347229481
300.0345278851287
300.0340359402024
300.0334951806367
300.0330833460363
300.0315423809111
300.0306205568131
300.028936720654
300.0263267337535
300.0244672639063
300.0209337195964
300.0175091521602
300.0139203007161
300.0087573975639
300.0042805636614
299.9988004299489
299.9925931995278
299.9868667349867
299.9804015898704
299.9733199920392
299.9662164230026
299.9654624142034
299.9654105576249
299.9656497770916
299.9656799402815
299.9659093418793
299.9667189107684
299.96712557745
299.9682346241674
299.9699443642801
299.9710076218784
299.9734856964444
299.9762355324816
299.9785689748954
299.9825364084776
299.9862056259904
299.9903335734792
299.9953715944998
300.0002285404619
300.0058599806647
300.0116326197845
300.0176356390562
300.0234396105428
300.031742390025
300.0342041032675
300.0342307198034
300.0342268188874
300.0339873085991
300.0339766489788
300.0333771841468
300.032636480427
300.0322052044281
300.0304180472137
300.02917828746
300.0274753637282
300.024446653374
300.0223155599933
300.0187028881087
300.014748808524
300.0110057793945
300.0057075017208
300.0008157404031
299.9952237154841
299.9890313725881
299.9830403420243
299.9769003057377
299.9682961435615
299.966015059652
299.9659721217284
299.9659498127845
299.9661090994824
299.9664919669574
299.9666083107699
299.9674437897402
299.9684819060905
299.9691700793575
299.9712001097523
299.9730230141469
299.9750739200164
299.9781845546295
299.9810803016092
299.9848051347336
299.9889500860131
299.9933366070225
299.998372929419
300.0036662794411
300.0092787166631
300.0152090027296
300.0209267681185
300.0283953064634
300.0334447272092
300.0338116668401
300.0337947528204
300.0336213305837
300.0336713875129
300.0330055854476
300.0326281415084
300.0320482078706
300.0304216656364
300.0296141072206
300.0275815647645
300.0251968151056
300.0230691317129
300.0196182170483
300.0161937644012
300.0122605602622
300.007630472038
300.0027045064029
299.9972752525679
299.9915812304625
299.9853420100494
299.9795361944543
299.9716373543318
299.9665781567965
299.9663971889407
299.9663888271359
299.9665794073757
299.9666232697192
299.9669760505822
299.9677513982577
299.9681303270634
299.9695138355193
299.9709400410169
299.9722482463814
299.9750062946786
299.9771888428621
299.9800395296315
299.9840669194468
299.9873783998862
299.9918588019488
299.996827884777
300.0015191304382
300.0072730722343
300.0128681258818
300.0186391536232
300.0247218599298
300.0321318875561
300.0333848497273
300.0333579100129
300.033331736106
300.033219694356
300.0326982254891
300.0326228236161
300.0317462556554
300.0305670634136
300.029841268499
300.0277397199948
300.0259336322462
300.0235475315285
300.02051313972
300.0175184642925
300.0132764411024
300.0092572430283
300.0046144670808
299.9990998570651
299.993813963641
299.9878914623378
299.9817173656115
299.9755379947476
299.9678117314223
299.9669599345061
299.9670061325861
299.9669655482423
299.9671171566299
299.9675345257791
299.967706185819
299.9685975868914
299.96966802317
299.9702826445511
299.9725415780566
299.9742543340367
299.976346722509
299.9795677522144
299.9824175700134
299.9862110929686
299.9903205885067
299.9946964001671
299.9997276877394
300.0048841943131
300.0104405828693
300.0162697053641
300.0217158846118
300.0294318477588
300.0329714186782
300.0330226351132
300.032973108798
300.0328408837475
300.0328219861761
300.0320713569692
300.0316363119417
300.0310902207303
300.029300911938
300.0284257586463
300.026417238077
300.0238602152769
300.0217353132485
300.0181425031154
300.0147255406349
300.0108169010821
300.0059930850441
300.0013425396406
299.9958241313018
299.9901883915452
299.9842605958487
299.9785107422535
299.9703774158648
299.967279337801
299.9672755724299
299.9671531572637
299.9673880962311
299.9676208786559
299.9678806114522
299.9686492456349
299.9693727919993
299.9706103099874
299.9720377275686
299.9737501829619
299.9761254627188
299.978520944183
299.9816588094724
299.9851339916428
299.9888477655415
299.9934083940445
299.9978754764244
300.0029922549463
300.0084812457027
300.0138372710208
300.0195983488047
300.0260168645498
300.0320736651106
300.0325159687607
300.0325353468231
300.0323808858935
300.0322639921566
300.0320793395132
300.0312423151851
300.0308275361125
300.029740043813
300.0280457133888
300.0271640442215
300.0245275329923
300.0219275744607
300.0197416818365
300.0156094105091
300.0121335972435
300.0079779947233
300.0028469164087
299.9981112327768
299.9923856245024
299.9865627079197
299.9810098345582
299.973847216628
299.9679922607917
299.9677221598988
299.9677037990413
299.9678351054002
299.9679009657705
299.9682963505506
299.9687830228452
299.9694198602828
299.9706146830076
299.9716223176827
299.9734790473573
299.9755691246203
299.9776185823363
299.9809355285091
299.9839350455848
299.9875004247075
299.9918839379786
299.9961118936513
300.0010561555811
300.0062747547959
300.0116204728818
300.0174224885762
300.0227349754077
300.030576633936
300.0328031418442
300.0328167257575
300.0328752131794
300.0326720892663
300.0325488325091
300.0323131197331
300.031643354487
300.0312034024471
300.0301632334886
300.028978936222
300.0277413193891
300.0258142173989
300.0239540929083
300.0216046797648
300.0189651139612
300.0161669473113
300.0129743699097
300.0096853240427
300.006487819178
300.0019109486234
300.0000218392693
300.0000000002102
299.9999999999961
299.9999999999962
299.9999999999963
299.9999999999964
299.9999999999967
299.9999999999969
299.9999999999973
299.9999999999982
299.9999999999984
299.9999999999986
299.9999999999994
299.9999999999997
299.9999999999997
299.9999999999998
299.9999999999998
299.9999999999998
299.9999999999997
299.9999999999998
299.9999999999998
300
299.9999999999997
299.9999999999998
299.9999999999999
299.9999999999998
299.9999999999998
299.9999999999998
300.0000000000001
299.9999999999997
299.9999999999999
299.9999999999998
300
299.9999999999998
299.9999999999998
299.9999999999998
299.9999999999999
299.9999999999998
300.0000000000001
299.9999999999997
300.0000000000001
299.9999999999999
300.0000000000001
299.9999999999998
299.9999999999999
300
299.9999999999999
300
300
299.9999999999999
300.0000000000002
299.9999999999995
300.0000000000002
299.9999999999999
299.9999999999999
299.9999999999999
300.0000000000002
300.0000000000001
299.9999999999999
300.0000000000001
300.0000000000001
300
300.0000000000001
300.0000000000001
300.0000000000002
300
300.0000000000002
300
300.0000000000002
300.0000000000002
300.0000000000001
300.0000000000002
300.0000000000002
300.0000000000002
300.0000000000001
300.0000000000003
300.0000000000001
300.0000000000001
300.0000000000002
300.0000000000001
300.0000000000003
300.0000000000001
300.0000000000002
300.0000000000001
299.9999999999999
300.0000000000001
300.0000000000001
300
300.0000000000001
300.0000000000001
300.0000000000001
300.0000000000002
300.0000000000001
300.0000000000001
300.0000000000001
300.0000000000001
300
300.0000000000001
300.0000000000001
300
300.0000000000002
300.0000000000001
300.0000000000002
299.9999999999998
300.0000000000002
300
300.0000000000001
300.0000000000002
300.0000000000001
300.0000000000001
300
300.0000000000001
299.9999999999999
300.0000000000001
300
300.0000000000001
300.0000000000001
300.0000000000001
300.0000000000003
300
300.0000000000002
300.0000000000002
300.0000000000002
300.0000000000001
300.0000000000002
300.0000000000001
300.0000000000002
300.0000000000001
300.0000000000001
300.0000000000002
300
300.0000000000002
300.0000000000001
300.0000000000001
300.0000000000001
300.0000000000001
300.0000000000001
300.0000000000001
300.0000000000002
299.9999999999999
300.0000000000002
300.0000000000001
300.0000000000002
300.0000000000002
300.0000000000001
300.0000000000001
300.0000000000002
300.0000000000001
300.0000000000002
300
300.0000000000001
300.0000000000001
300.0000000000001
300
300.0000000000001
299.9999999999999
300.0000000000001
300
300
300.0000000000001
300
300.0000000000001
300
)
;

boundaryField
{
    inlet
    {
        type            fixedValue;
        value           uniform 300;
    }
    outlet
    {
        type            inletOutlet;
        inletValue      uniform 300;
        value           uniform 300;
    }
    frontAndBack
    {
        type            empty;
    }
}


// ************************************************************************* //
