/*--------------------------------*- C++ -*----------------------------------*\
| =========                 |                                                 |
| \\      /  F ield         | OpenFOAM: The Open Source CFD Toolbox           |
|  \\    /   O peration     | Version:  v2012                                 |
|   \\  /    A nd           | Website:  www.openfoam.com                      |
|    \\/     M anipulation  |                                                 |
\*---------------------------------------------------------------------------*/
FoamFile
{
    version     2.0;
    format      ascii;
    class       volVectorField;
    location    "0.006";
    object      UMean;
}
// * * * * * * * * * * * * * * * * * * * * * * * * * * * * * * * * * * * * * //

dimensions      [0 1 -1 0 0 0 0];


internalField   nonuniform List<vector> 
1000
(
(-2.982869618703976e-05 0 0)
(2.543324777063016e-05 0 0)
(4.85750121133499e-05 0 0)
(0.0001596160985360178 0 0)
(0.0001859630636130855 0 0)
(0.0002807548995411448 0 0)
(0.0004083151905477194 0 0)
(0.0005277122670311733 0 0)
(0.0006235869797234636 0 0)
(0.0007955183836310599 0 0)
(0.0009338663958319637 0 0)
(0.001056029285674102 0 0)
(0.001206255808057358 0 0)
(0.001376991009832329 0 0)
(0.001477070886637992 0 0)
(0.001599204053496406 0 0)
(0.0017639870938179 0 0)
(0.001846500035515857 0 0)
(0.001932388147380478 0 0)
(0.002023219520050418 0 0)
(0.00209192332001144 0 0)
(0.002125695931475031 0 0)
(0.002121229537401076 0 0)
(0.00217621466105717 0 0)
(0.002147149144501714 0 0)
(0.002095149744060695 0 0)
(0.002019015908180957 0 0)
(0.002003230381433324 0 0)
(0.001910430789018054 0 0)
(0.00173509695419316 0 0)
(0.001677537660874088 0 0)
(0.001579870155970567 0 0)
(0.001369725786845175 0 0)
(0.00120890754105054 0 0)
(0.001174913660234264 0 0)
(0.0009754647609039078 0 0)
(0.0007978173296249897 0 0)
(0.0007101598128856741 0 0)
(0.0006059016131505506 0 0)
(0.0004421572384700708 0 0)
(0.0003074757408035635 0 0)
(0.0002679948126063698 0 0)
(0.0001617483011026929 0 0)
(7.835624711487954e-05 0 0)
(2.94583017812332e-05 0 0)
(3.021015203956056e-05 0 0)
(5.994401298123065e-06 0 0)
(-2.176179315316882e-06 0 0)
(5.073564727627541e-05 0 0)
(0.0001023622301201112 0 0)
(0.000156983156337042 0 0)
(0.0002482548047529002 0 0)
(0.0003601636183175485 0 0)
(0.0004494700859106742 0 0)
(0.0006050140889500739 0 0)
(0.0007559772258490627 0 0)
(0.000867325538649681 0 0)
(0.001015922745520336 0 0)
(0.001167802837289355 0 0)
(0.001285255661564746 0 0)
(0.00142414498805295 0 0)
(0.001566487013688046 0 0)
(0.001657045653126161 0 0)
(0.001783586612927426 0 0)
(0.001912430330172106 0 0)
(0.001967244145297709 0 0)
(0.002038777929250963 0 0)
(0.002111035509511911 0 0)
(0.002145850625835086 0 0)
(0.002145391934744991 0 0)
(0.002140903583717263 0 0)
(0.002119575525985474 0 0)
(0.002081212893001926 0 0)
(0.001999764303269059 0 0)
(0.001923296297627679 0 0)
(0.001840964161271179 0 0)
(0.001707953329755904 0 0)
(0.001571932282519285 0 0)
(0.001451938062071231 0 0)
(0.001308478758642402 0 0)
(0.00114335020318347 0 0)
(0.001046193201924787 0 0)
(0.0009063856286554133 0 0)
(0.000743536553129 0 0)
(0.0006364626375588844 0 0)
(0.0005295926167541243 0 0)
(0.0003925375185925225 0 0)
(0.0002845489432169111 0 0)
(0.000217026712457801 0 0)
(0.0001240822642605499 0 0)
(6.944500055410548e-05 0 0)
(2.576532605559081e-05 0 0)
(1.366933931385897e-05 0 0)
(3.992110020752293e-06 0 0)
(3.550064826596167e-05 0 0)
(6.989102615178813e-05 0 0)
(0.0001303927975864325 0 0)
(0.0002217536656261113 0 0)
(0.0003179159185285675 0 0)
(0.0004192608928930349 0 0)
(0.0005619133471860459 0 0)
(0.000710627771601338 0 0)
(0.0008350250197081913 0 0)
(0.00096208087834211 0 0)
(0.001114253254651784 0 0)
(0.001250360520522601 0 0)
(0.001355812202488973 0 0)
(0.0015011034624542 0 0)
(0.001634056438520756 0 0)
(0.00171920409537806 0 0)
(0.001834287175134001 0 0)
(0.001948543603698547 0 0)
(0.002002523690438035 0 0)
(0.002054180817732832 0 0)
(0.002136782316211097 0 0)
(0.002148164062541893 0 0)
(0.002121363684637624 0 0)
(0.002149492746069177 0 0)
(0.002115334603296424 0 0)
(0.002002734721761375 0 0)
(0.001966856449370428 0 0)
(0.001897730963895561 0 0)
(0.001728834896574102 0 0)
(0.0016106860386011 0 0)
(0.00151851689761861 0 0)
(0.001338525655232081 0 0)
(0.001198484307364285 0 0)
(0.001101053319694128 0 0)
(0.000954219174496415 0 0)
(0.0007938683708353073 0 0)
(0.0007156901108635622 0 0)
(0.0005761433862979887 0 0)
(0.0004323824405689784 0 0)
(0.0003614801742048458 0 0)
(0.0002736484567644733 0 0)
(0.0001492562817573093 0 0)
(0.0001060256957422072 0 0)
(8.182403826337474e-05 0 0)
(2.941851241067887e-06 0 0)
(1.293883023813421e-05 0 0)
(3.701499457112681e-05 0 0)
(5.419931179865319e-05 0 0)
(9.000376738782796e-05 0 0)
(0.0002016211313549104 0 0)
(0.0002729722201440466 0 0)
(0.0003784348552035136 0 0)
(0.0005385815208709079 0 0)
(0.0006489353874515572 0 0)
(0.0007970108087782657 0 0)
(0.0009333185288552887 0 0)
(0.00105000809293946 0 0)
(0.001190361810729602 0 0)
(0.001339471002706366 0 0)
(0.001432419848170188 0 0)
(0.001554711698394152 0 0)
(0.001718443060158885 0 0)
(0.001769472407368205 0 0)
(0.001869313411720544 0 0)
(0.001993245640407759 0 0)
(0.002039104780116861 0 0)
(0.002061710108416661 0 0)
(0.002150253755274497 0 0)
(0.00215560542088151 0 0)
(0.002100162940224606 0 0)
(0.00213181246570962 0 0)
(0.00208157963110988 0 0)
(0.001966735846128773 0 0)
(0.001901951589561674 0 0)
(0.001834924256318799 0 0)
(0.001638591493951276 0 0)
(0.001522876833749243 0 0)
(0.001419017146097365 0 0)
(0.001252553635695941 0 0)
(0.001119938456111069 0 0)
(0.001015022795387641 0 0)
(0.0008686691280420132 0 0)
(0.0007273148682364351 0 0)
(0.000652630092931856 0 0)
(0.0004952989429870407 0 0)
(0.000386577752950313 0 0)
(0.0003280315191848406 0 0)
(0.0002070226627742358 0 0)
(0.0001236801982187459 0 0)
(0.0001092753457932044 0 0)
(4.397849891685887e-05 0 0)
(-4.153391322288441e-06 0 0)
(5.473617025622e-05 0 0)
(4.424333583688193e-05 0 0)
(6.603614434091788e-05 0 0)
(0.0001713925595255519 0 0)
(0.0002563637695131045 0 0)
(0.0003234935740669766 0 0)
(0.000497347717083711 0 0)
(0.0006322746164936318 0 0)
(0.0007331397563159443 0 0)
(0.0008845278699122565 0 0)
(0.00102664449177692 0 0)
(0.001138264917685722 0 0)
(0.001259788659278955 0 0)
(0.001417601842098309 0 0)
(0.001508654465314854 0 0)
(0.001628035385341714 0 0)
(0.001745806035813526 0 0)
(0.001843198670919279 0 0)
(0.001921643713100996 0 0)
(0.001997191416913603 0 0)
(0.002070131751429952 0 0)
(0.00209715383315528 0 0)
(0.002132506030211511 0 0)
(0.002126411125858988 0 0)
(0.002131285410446965 0 0)
(0.002071264738034327 0 0)
(0.002018091317115289 0 0)
(0.001943827354191409 0 0)
(0.001844446592127439 0 0)
(0.001694945794157473 0 0)
(0.00157951104118754 0 0)
(0.001450605625646908 0 0)
(0.001298732388413592 0 0)
(0.001188965031474114 0 0)
(0.00106223076471963 0 0)
(0.0009104147475281306 0 0)
(0.0007998068769808303 0 0)
(0.00069471118691701 0 0)
(0.0005513651986162371 0 0)
(0.0004482891627731497 0 0)
(0.000370810261325172 0 0)
(0.0002581203274687922 0 0)
(0.0001798165483955693 0 0)
(0.0001327309804811478 0 0)
(7.764052410935362e-05 0 0)
(2.917007307721473e-05 0 0)
(5.203995070483493e-05 0 0)
(5.071711196034342e-05 0 0)
(6.795356720143321e-05 0 0)
(0.0001408654776896859 0 0)
(0.0002248700311864516 0 0)
(0.0003110109791758331 0 0)
(0.0004468325356114189 0 0)
(0.0005861868587955167 0 0)
(0.0007088665164745541 0 0)
(0.0008397040534179328 0 0)
(0.0009726412797508991 0 0)
(0.001101508840002869 0 0)
(0.001220604024735697 0 0)
(0.001353167633775238 0 0)
(0.001475497095142647 0 0)
(0.001578726726730526 0 0)
(0.001694877014430855 0 0)
(0.001799278782333669 0 0)
(0.001885602371575603 0 0)
(0.001959080837655852 0 0)
(0.002035341010140618 0 0)
(0.002079171113555985 0 0)
(0.002110167542928441 0 0)
(0.002124832429848789 0 0)
(0.002121370778364291 0 0)
(0.00208755712179977 0 0)
(0.002041614106765266 0 0)
(0.001968031777105026 0 0)
(0.00187396368982658 0 0)
(0.001745787875675804 0 0)
(0.001619863793986931 0 0)
(0.001490492213839065 0 0)
(0.001357664537914512 0 0)
(0.001221384317049467 0 0)
(0.001111333188182557 0 0)
(0.0009716835161705488 0 0)
(0.0008476194511768914 0 0)
(0.0007299558274839712 0 0)
(0.0006235225258789486 0 0)
(0.0004906624693552807 0 0)
(0.0004050962601758885 0 0)
(0.0003144827198890865 0 0)
(0.0002236072139707005 0 0)
(0.0001578104431894226 0 0)
(0.000108856396319628 0 0)
(7.145981048960487e-05 0 0)
(3.975646233129174e-05 0 0)
(6.509925277303941e-05 0 0)
(7.59354408790288e-05 0 0)
(0.0001143534099078512 0 0)
(0.0002009189254059291 0 0)
(0.0002865294048052568 0 0)
(0.0004083960660679895 0 0)
(0.0005337085877556814 0 0)
(0.0006848613926940556 0 0)
(0.000784078460266941 0 0)
(0.0009360087914976796 0 0)
(0.001051531570179218 0 0)
(0.001183815855823988 0 0)
(0.001298312345350707 0 0)
(0.001427677585838185 0 0)
(0.001539488543444665 0 0)
(0.001639203874499687 0 0)
(0.001763887822284416 0 0)
(0.001835062272255267 0 0)
(0.001931512286236434 0 0)
(0.001989344978931868 0 0)
(0.002055684041569803 0 0)
(0.002086279547155474 0 0)
(0.002110250378209459 0 0)
(0.0021106751470531 0 0)
(0.002089443909766028 0 0)
(0.002061292377873301 0 0)
(0.001976191988052704 0 0)
(0.001909249584402205 0 0)
(0.001782954996415341 0 0)
(0.001662804731353174 0 0)
(0.001525275465272002 0 0)
(0.001400099617001798 0 0)
(0.001275858563981798 0 0)
(0.001148845333090729 0 0)
(0.001023823298835277 0 0)
(0.0008923054186061381 0 0)
(0.0007884059898979288 0 0)
(0.000658746876948128 0 0)
(0.0005559563946673853 0 0)
(0.0004460613870270504 0 0)
(0.0003579343374956042 0 0)
(0.0002640478634486589 0 0)
(0.0001995824979995427 0 0)
(0.0001375464802601528 0 0)
(8.973884579923855e-05 0 0)
(7.300664485818809e-05 0 0)
(6.438247044946325e-05 0 0)
(7.792753433853739e-05 0 0)
(0.0001124298235317823 0 0)
(0.0001835326879458213 0 0)
(0.0002530150154966865 0 0)
(0.0003707338171207986 0 0)
(0.0005050510377802367 0 0)
(0.0006275976257971979 0 0)
(0.0007577508382376997 0 0)
(0.0008812774503288295 0 0)
(0.001010622069279342 0 0)
(0.00113684419537646 0 0)
(0.001255735789278578 0 0)
(0.001378302243768323 0 0)
(0.001494609885835038 0 0)
(0.001600061894105604 0 0)
(0.001708056391390303 0 0)
(0.001806469291209553 0 0)
(0.001882886030119662 0 0)
(0.001954751858535627 0 0)
(0.002023297270959226 0 0)
(0.002073227875840938 0 0)
(0.002079692277874291 0 0)
(0.002101651178150217 0 0)
(0.002105427444233482 0 0)
(0.00205774809334228 0 0)
(0.001994280283447841 0 0)
(0.001940370782398314 0 0)
(0.00183411518645492 0 0)
(0.00168912590753352 0 0)
(0.001587618073288637 0 0)
(0.0014504316973229 0 0)
(0.001316193428260525 0 0)
(0.001198919213897293 0 0)
(0.001079233784516622 0 0)
(0.0009453626388736727 0 0)
(0.0008229804443236942 0 0)
(0.0007247608239914704 0 0)
(0.0005961544321309469 0 0)
(0.0004952662759217038 0 0)
(0.0003980096319327709 0 0)
(0.0003198259964926176 0 0)
(0.0002304937909491084 0 0)
(0.0001710650387984362 0 0)
(0.0001278287062646775 0 0)
(9.18286549809098e-05 0 0)
(8.216461302806514e-05 0 0)
(7.717775905763319e-05 0 0)
(0.0001227905898590727 0 0)
(0.0001594895495255315 0 0)
(0.0002406984499567248 0 0)
(0.0003326027344915443 0 0)
(0.0004716315470278457 0 0)
(0.0005803812824437016 0 0)
(0.0007254003980734399 0 0)
(0.000843008324549205 0 0)
(0.0009543914571264079 0 0)
(0.001097375228990866 0 0)
(0.00121875212525406 0 0)
(0.001327856074871411 0 0)
(0.001436917775665359 0 0)
(0.001578859877122374 0 0)
(0.001650882483495393 0 0)
(0.00175355409524885 0 0)
(0.001856955752829533 0 0)
(0.001923777627283755 0 0)
(0.001976973817788654 0 0)
(0.002041575758530705 0 0)
(0.002080360678804441 0 0)
(0.002073066342226381 0 0)
(0.002094550363184709 0 0)
(0.002059976413842472 0 0)
(0.002012663206844264 0 0)
(0.001948492108813688 0 0)
(0.001870902086940807 0 0)
(0.001730419373598616 0 0)
(0.001613900028390131 0 0)
(0.001501129252639579 0 0)
(0.001355207866770188 0 0)
(0.001241710174969209 0 0)
(0.001123413549980458 0 0)
(0.0009899312310103813 0 0)
(0.0008724213508200874 0 0)
(0.0007691090497360842 0 0)
(0.0006467619734945923 0 0)
(0.0005305891087815576 0 0)
(0.0004538716284748598 0 0)
(0.0003582109063829457 0 0)
(0.0002638631432375111 0 0)
(0.0002062363531569717 0 0)
(0.0001669692619933666 0 0)
(0.0001060144404637028 0 0)
(9.50850798146385e-05 0 0)
(0.0001083693797005534 0 0)
(0.0001070620384406834 0 0)
(0.0001537784894052697 0 0)
(0.0002353087257217012 0 0)
(0.0003038371566037129 0 0)
(0.0004188613591308371 0 0)
(0.0005672195931293738 0 0)
(0.0006778042799610235 0 0)
(0.0007913968819671186 0 0)
(0.0009357051883570465 0 0)
(0.001049978621874413 0 0)
(0.001165630228793072 0 0)
(0.00128699801207936 0 0)
(0.001413829498270123 0 0)
(0.001509810517321091 0 0)
(0.001622243772094073 0 0)
(0.001723206387316355 0 0)
(0.001805782051002006 0 0)
(0.001887697836732558 0 0)
(0.001961237667869967 0 0)
(0.002010942272967759 0 0)
(0.00204442227820023 0 0)
(0.002081703543228279 0 0)
(0.002073742933931185 0 0)
(0.002060254709154935 0 0)
(0.002031233737233517 0 0)
(0.001968003908047034 0 0)
(0.001886442748260117 0 0)
(0.00178878037686365 0 0)
(0.001658441105689644 0 0)
(0.001530569919492383 0 0)
(0.001417146307872899 0 0)
(0.001285725685917584 0 0)
(0.001166202618210329 0 0)
(0.001044172394317426 0 0)
(0.000930240653053331 0 0)
(0.0008021847575368664 0 0)
(0.0007035227174402296 0 0)
(0.0005921680964466367 0 0)
(0.000481931557116331 0 0)
(0.0004027760464697545 0 0)
(0.0003193595628438601 0 0)
(0.0002380836093677922 0 0)
(0.0001831697645342788 0 0)
(0.0001552692436864863 0 0)
(0.0001036155669443027 0 0)
(0.0001147686065309316 0 0)
(0.0001222430726618174 0 0)
(0.0001497191669356717 0 0)
(0.0002074229391122408 0 0)
(0.0002922034220430783 0 0)
(0.0003900156337627806 0 0)
(0.0005104359662862007 0 0)
(0.0006518107385574854 0 0)
(0.000758691170896374 0 0)
(0.0008832425333601152 0 0)
(0.001005231077218923 0 0)
(0.001137201104538109 0 0)
(0.001238000588645156 0 0)
(0.001365539879546359 0 0)
(0.001470856936597597 0 0)
(0.001576531122069603 0 0)
(0.001681748669142948 0 0)
(0.001767475162789476 0 0)
(0.001855370742069137 0 0)
(0.001920900576305703 0 0)
(0.001988788165703949 0 0)
(0.002021472182639023 0 0)
(0.002058469178176053 0 0)
(0.002062300335092532 0 0)
(0.002059955932830143 0 0)
(0.002034103929035229 0 0)
(0.00197788467710594 0 0)
(0.001910277007903416 0 0)
(0.00182074679873761 0 0)
(0.001702044521417469 0 0)
(0.001570035278547564 0 0)
(0.001451921479124812 0 0)
(0.001337370188658074 0 0)
(0.001209351129861443 0 0)
(0.001090783474189938 0 0)
(0.0009740636754750525 0 0)
(0.0008564903136553856 0 0)
(0.0007421713458383512 0 0)
(0.0006467710272611381 0 0)
(0.0005303362313934085 0 0)
(0.0004398005462573269 0 0)
(0.0003631782331860984 0 0)
(0.0002873964286089634 0 0)
(0.0002124313877997041 0 0)
(0.0001724100244735554 0 0)
(0.000148620569911896 0 0)
(0.0001174896215687582 0 0)
(0.0001316496844880257 0 0)
(0.0001570401026378448 0 0)
(0.0001991080766155787 0 0)
(0.0002660545400374189 0 0)
(0.0003630164245472487 0 0)
(0.0004837692205014368 0 0)
(0.0005951275024561661 0 0)
(0.0007344486869541952 0 0)
(0.0008377243576486587 0 0)
(0.000967429264544223 0 0)
(0.001086499938245892 0 0)
(0.001205550086598924 0 0)
(0.001313135740808937 0 0)
(0.001428493706315159 0 0)
(0.001542510660491403 0 0)
(0.00162895237773533 0 0)
(0.001738688204592809 0 0)
(0.001808224978232399 0 0)
(0.001895243327900631 0 0)
(0.001946656922666332 0 0)
(0.002007076785109788 0 0)
(0.002033183928475066 0 0)
(0.002055946454295155 0 0)
(0.002050512088219074 0 0)
(0.002026872529416086 0 0)
(0.001999637997956184 0 0)
(0.001923155695857989 0 0)
(0.001849868503646738 0 0)
(0.001733392797772814 0 0)
(0.001619120336665673 0 0)
(0.001485983091864469 0 0)
(0.001376917392839931 0 0)
(0.001255535165699093 0 0)
(0.001129528527439549 0 0)
(0.001020565344674684 0 0)
(0.0009036763999283391 0 0)
(0.0007931937523135396 0 0)
(0.0006753602802143584 0 0)
(0.0005904996626078031 0 0)
(0.0004785190440185173 0 0)
(0.0003967246454670964 0 0)
(0.0003269752954383975 0 0)
(0.0002536415035894485 0 0)
(0.0001943899972862676 0 0)
(0.0001711379179605393 0 0)
(0.0001452750775409955 0 0)
(0.0001293143637414161 0 0)
(0.0001621274326755967 0 0)
(0.0001926476504164924 0 0)
(0.0002536308216796452 0 0)
(0.0003314889895396907 0 0)
(0.0004498340984184767 0 0)
(0.0005646920851056372 0 0)
(0.0006881914358068475 0 0)
(0.0008054197127426565 0 0)
(0.0009253045261544758 0 0)
(0.001044036981754584 0 0)
(0.001161260476512835 0 0)
(0.001275759828256685 0 0)
(0.001386298639379428 0 0)
(0.001496573634860488 0 0)
(0.001593405123277649 0 0)
(0.00169228646360765 0 0)
(0.001777095899865551 0 0)
(0.00185635176777888 0 0)
(0.00191934995149445 0 0)
(0.001976174795948344 0 0)
(0.002013304866916261 0 0)
(0.002037279430398706 0 0)
(0.002043505032321034 0 0)
(0.002027723767725869 0 0)
(0.002003768345177651 0 0)
(0.001941994536651999 0 0)
(0.001868919620977971 0 0)
(0.001780986288474795 0 0)
(0.001653419248589939 0 0)
(0.001529677393885169 0 0)
(0.001416037265877474 0 0)
(0.001305939327130824 0 0)
(0.001172032891377621 0 0)
(0.001065187645873582 0 0)
(0.0009576955660353756 0 0)
(0.0008280289804785609 0 0)
(0.00072800262149054 0 0)
(0.0006330560631436461 0 0)
(0.0005281446963428321 0 0)
(0.0004297171592832251 0 0)
(0.0003675680148046969 0 0)
(0.0002913048295179405 0 0)
(0.0002274965535211555 0 0)
(0.0001860156050359004 0 0)
(0.0001666859797418685 0 0)
(0.0001525822364650317 0 0)
(0.0001582431647283818 0 0)
(0.0001923878064551793 0 0)
(0.0002360676958928823 0 0)
(0.0003179488248239451 0 0)
(0.0004069247095084403 0 0)
(0.0005307727577492878 0 0)
(0.0006449169100566867 0 0)
(0.0007739685456883741 0 0)
(0.0008787354547872509 0 0)
(0.0009964984945441319 0 0)
(0.00112811258458441 0 0)
(0.001223082255494037 0 0)
(0.001343334786081905 0 0)
(0.001448477062072834 0 0)
(0.001555734935871815 0 0)
(0.001640799651537203 0 0)
(0.001748599639110357 0 0)
(0.001815528989269862 0 0)
(0.00188038879053414 0 0)
(0.001954909034687967 0 0)
(0.001988952756909017 0 0)
(0.002017601371669635 0 0)
(0.002025315065618313 0 0)
(0.00203952897508921 0 0)
(0.001992358749566816 0 0)
(0.001960125454752409 0 0)
(0.001898842577800834 0 0)
(0.001803776487273916 0 0)
(0.001688432252905229 0 0)
(0.001580725160115165 0 0)
(0.001460064865261564 0 0)
(0.001331686802477611 0 0)
(0.001230354396356258 0 0)
(0.001110928091752403 0 0)
(0.0009915982716416508 0 0)
(0.0008807528782988161 0 0)
(0.0007823796478800119 0 0)
(0.0006675303602120956 0 0)
(0.0005699270326836593 0 0)
(0.0004884571870776977 0 0)
(0.0003972824269766176 0 0)
(0.0003269715371190982 0 0)
(0.0002633712552414124 0 0)
(0.000217329255118264 0 0)
(0.0001848229984264248 0 0)
(0.0001715145456339064 0 0)
(0.0001657756863380404 0 0)
(0.0001901342598723692 0 0)
(0.0002382494025486336 0 0)
(0.0002936068870371341 0 0)
(0.0003780740435157566 0 0)
(0.0005007122053127867 0 0)
(0.0006112056502857641 0 0)
(0.000730022733523983 0 0)
(0.0008469006469416711 0 0)
(0.0009665914345316211 0 0)
(0.001067605411019317 0 0)
(0.001194750439275926 0 0)
(0.001306360489506396 0 0)
(0.001402137870843442 0 0)
(0.001510945267579608 0 0)
(0.001616439966758351 0 0)
(0.001697369316688873 0 0)
(0.001778122216203839 0 0)
(0.001862569601754915 0 0)
(0.001914303088075131 0 0)
(0.001964056292366002 0 0)
(0.002003735570895392 0 0)
(0.002017184690814671 0 0)
(0.002015970599802174 0 0)
(0.00200390303193003 0 0)
(0.001969621576064058 0 0)
(0.001899951040917935 0 0)
(0.001835918440982352 0 0)
(0.001733843695161937 0 0)
(0.001606261776934928 0 0)
(0.001492788145010501 0 0)
(0.001389176611570588 0 0)
(0.001260437516740061 0 0)
(0.001150297393695329 0 0)
(0.001038837039455577 0 0)
(0.0009289003515792991 0 0)
(0.0008148054765570959 0 0)
(0.0007166601383738617 0 0)
(0.0006166637406821499 0 0)
(0.0005164006348158246 0 0)
(0.0004411358103312174 0 0)
(0.0003630077229223864 0 0)
(0.0002959897235879523 0 0)
(0.0002430242631841474 0 0)
(0.0002123611287876108 0 0)
(0.0001816710853207324 0 0)
(0.0001797814478344515 0 0)
(0.0001965839279941483 0 0)
(0.0002286216703480357 0 0)
(0.0002790495085718015 0 0)
(0.0003600272147859065 0 0)
(0.0004659347470314997 0 0)
(0.0005715105651086285 0 0)
(0.0006948367785620666 0 0)
(0.0008102993030595286 0 0)
(0.0009223511257025133 0 0)
(0.001027178542573018 0 0)
(0.001158405860804262 0 0)
(0.001251181121969013 0 0)
(0.001360445267160669 0 0)
(0.001472938703352933 0 0)
(0.001567800739789796 0 0)
(0.001655752108093887 0 0)
(0.001740554917316779 0 0)
(0.001826413335387785 0 0)
(0.001878140894642125 0 0)
(0.001939722678991961 0 0)
(0.001973856933859207 0 0)
(0.002002511421698262 0 0)
(0.002006961696065079 0 0)
(0.002003016878285976 0 0)
(0.0019707115769691 0 0)
(0.001916394691728054 0 0)
(0.001861219582267518 0 0)
(0.001764762012520224 0 0)
(0.001646599250513001 0 0)
(0.001533849434087887 0 0)
(0.001425099441832426 0 0)
(0.001303975982254005 0 0)
(0.001189597550883422 0 0)
(0.00108594317253805 0 0)
(0.0009677715218947835 0 0)
(0.0008605674500131728 0 0)
(0.0007592716034674469 0 0)
(0.0006570510626212866 0 0)
(0.0005607529343020646 0 0)
(0.0004810446199652753 0 0)
(0.0003957294529516414 0 0)
(0.0003275541813439545 0 0)
(0.0002775391650988091 0 0)
(0.0002314090128153793 0 0)
(0.0002039599288621605 0 0)
(0.000189076351097795 0 0)
(0.0002036535615422029 0 0)
(0.0002240372634824391 0 0)
(0.0002696928140963309 0 0)
(0.0003411901318502233 0 0)
(0.00042507988075123 0 0)
(0.0005480522051852102 0 0)
(0.0006531043680900918 0 0)
(0.0007767779452456419 0 0)
(0.0008788478109525839 0 0)
(0.001001095308943444 0 0)
(0.001109119204918263 0 0)
(0.001216096803064554 0 0)
(0.00132987750783434 0 0)
(0.001426257439573065 0 0)
(0.001532626598054438 0 0)
(0.001617780257176608 0 0)
(0.001715327082464405 0 0)
(0.001780123919605144 0 0)
(0.001858161019728237 0 0)
(0.0019126016479414 0 0)
(0.001951632657603267 0 0)
(0.00198487964623493 0 0)
(0.0019979813084127 0 0)
(0.001998004564451857 0 0)
(0.001965611819779807 0 0)
(0.001939247136731269 0 0)
(0.001867810817988634 0 0)
(0.001796892255886061 0 0)
(0.001681256107384641 0 0)
(0.001573292781692942 0 0)
(0.001458872585220221 0 0)
(0.001346058216528579 0 0)
(0.001233763245782394 0 0)
(0.001121575249229976 0 0)
(0.001017309003802518 0 0)
(0.0009010774896447509 0 0)
(0.0008038698870423237 0 0)
(0.0007009140415360767 0 0)
(0.0006060497017180075 0 0)
(0.0005154677347688074 0 0)
(0.000439242383935461 0 0)
(0.000364211355655711 0 0)
(0.0003070156280054392 0 0)
(0.0002592468088219186 0 0)
(0.0002228897473577693 0 0)
(0.0002115600844936359 0 0)
(0.000205122404707456 0 0)
(0.000229225085977652 0 0)
(0.000263503677958765 0 0)
(0.0003243417478572496 0 0)
(0.0004003364404368129 0 0)
(0.0005138868307668788 0 0)
(0.0006204349553048451 0 0)
(0.0007362648829190863 0 0)
(0.0008458479628368947 0 0)
(0.0009610586741328525 0 0)
(0.001066131955474769 0 0)
(0.00117934549994732 0 0)
(0.001285386433959874 0 0)
(0.00138727086855108 0 0)
(0.001490519335135372 0 0)
(0.001581455670167371 0 0)
(0.001672963075888877 0 0)
(0.001749397804080093 0 0)
(0.001824290104901847 0 0)
(0.001881272198657619 0 0)
(0.001931466199093006 0 0)
(0.001963763803045093 0 0)
(0.00198557278121625 0 0)
(0.0019884608681169 0 0)
(0.001970472633691352 0 0)
(0.001944140921219653 0 0)
(0.001885785489214504 0 0)
(0.001817428991743006 0 0)
(0.001722655931224292 0 0)
(0.001605309862598655 0 0)
(0.001494599128302318 0 0)
(0.001375259890374917 0 0)
(0.001268450660014732 0 0)
(0.001150333712725569 0 0)
(0.001039578433496532 0 0)
(0.0009297534896091655 0 0)
(0.00081884140842085 0 0)
(0.0007151393796742866 0 0)
(0.000610188721041369 0 0)
(0.0005159469072198512 0 0)
(0.0004187746268841411 0 0)
(0.0003380570755212587 0 0)
(0.0002557241539816597 0 0)
(0.000189130026120069 0 0)
(0.0001270716430848389 0 0)
(7.831805448159456e-05 0 0)
(4.106527029090788e-05 0 0)
(1.1964241617482e-05 0 0)
(1.367310459777807e-07 0 0)
(9.209620983242263e-13 0 0)
(-4.324764855478514e-13 0 0)
(-4.301296879118835e-13 0 0)
(-3.820240352801523e-13 0 0)
(-3.817069329330729e-13 0 0)
(-3.207929154566451e-13 0 0)
(-4.236921139855367e-13 0 0)
(-3.188925678074279e-13 0 0)
(-3.295285943960326e-13 0 0)
(-3.442717046615006e-13 0 0)
(-3.234260945477113e-13 0 0)
(-2.936142829241069e-13 0 0)
(-3.106016799674399e-13 0 0)
(-3.299801200108412e-13 0 0)
(-2.55081247731112e-13 0 0)
(-3.355865542969197e-13 0 0)
(-3.120904697063023e-13 0 0)
(-3.118441419994306e-13 0 0)
(-2.946323315008864e-13 0 0)
(-2.997028260290515e-13 0 0)
(-3.116754323673346e-13 0 0)
(-2.792665100987884e-13 0 0)
(-3.08383851832409e-13 0 0)
(-3.051434764799532e-13 0 0)
(-3.106442942960481e-13 0 0)
(-2.773163079944902e-13 0 0)
(-3.112207911874152e-13 0 0)
(-3.113619335602213e-13 0 0)
(-2.810319274716018e-13 0 0)
(-3.1965037995481e-13 0 0)
(-2.561290258397474e-13 0 0)
(-3.375314228597611e-13 0 0)
(-2.797529090186421e-13 0 0)
(-3.101713263395301e-13 0 0)
(-2.881846622844241e-13 0 0)
(-3.078263861772563e-13 0 0)
(-2.826866996319958e-13 0 0)
(-2.844788460022956e-13 0 0)
(-3.092900464790309e-13 0 0)
(-2.328347568605662e-13 0 0)
(-3.3770789503728e-13 0 0)
(-2.986480188216495e-13 0 0)
(-2.881551906658899e-13 0 0)
(-2.912868555051316e-13 0 0)
(-2.799697863665882e-13 0 0)
(-3.058221581710401e-13 0 0)
(-2.674951324310948e-13 0 0)
(-2.927282564629355e-13 0 0)
(-2.986563184532526e-13 0 0)
(-2.923319745482708e-13 0 0)
(-2.884158469250136e-13 0 0)
(-2.811308069380047e-13 0 0)
(-2.914292090838146e-13 0 0)
(-2.867063129278163e-13 0 0)
(-2.911447532474655e-13 0 0)
(-2.367715870488373e-13 0 0)
(-3.424540998266673e-13 0 0)
(-2.781274565137578e-13 0 0)
(-2.820668739990753e-13 0 0)
(-2.836223314529471e-13 0 0)
(-2.94117433288737e-13 0 0)
(-2.911023968321664e-13 0 0)
(-2.749317046642697e-13 0 0)
(-2.937810479036435e-13 0 0)
(-2.298895011959204e-13 0 0)
(-3.521897899547876e-13 0 0)
(-2.65159696994788e-13 0 0)
(-2.889280113341865e-13 0 0)
(-3.005401408334765e-13 0 0)
(-2.850361775929344e-13 0 0)
(-2.927387396266608e-13 0 0)
(-2.502298294934059e-13 0 0)
(-3.301805807904962e-13 0 0)
(-2.656495250968304e-13 0 0)
(-3.209851916354853e-13 0 0)
(-2.811959432377427e-13 0 0)
(-3.037741915468222e-13 0 0)
(-3.089900592218361e-13 0 0)
(-2.827306917966412e-13 0 0)
(-3.136565840273501e-13 0 0)
(-2.594652078748762e-13 0 0)
(-3.494255941209158e-13 0 0)
(-3.111540446307533e-13 0 0)
(-2.824990506564358e-13 0 0)
(-3.103569364103882e-13 0 0)
(-3.168883889125514e-13 0 0)
(-2.941908289268074e-13 0 0)
(-2.94600045011951e-13 0 0)
(-3.110268553779335e-13 0 0)
(-2.780146730387002e-13 0 0)
(-3.291431056387129e-13 0 0)
(-2.969488554455968e-13 0 0)
(-3.133530591496282e-13 0 0)
(-3.034747230853178e-13 0 0)
(-2.998370502296473e-13 0 0)
(-3.385310357406804e-13 0 0)
(-2.601865063826917e-13 0 0)
(-3.437529789594488e-13 0 0)
(-2.982823071887284e-13 0 0)
(-3.321862869963897e-13 0 0)
(-2.506035790027414e-13 0 0)
(-3.624290615833673e-13 0 0)
(-3.163126836597309e-13 0 0)
(-2.934132677693122e-13 0 0)
(-3.156659304430591e-13 0 0)
(-3.144497130570653e-13 0 0)
(-3.213166746150127e-13 0 0)
(-2.743035477060681e-13 0 0)
(-3.445804160938679e-13 0 0)
(-3.227724978962485e-13 0 0)
(-3.199420161096297e-13 0 0)
(-3.125640698731362e-13 0 0)
(-3.13769058861593e-13 0 0)
(-3.232281671061987e-13 0 0)
(-3.041527675890074e-13 0 0)
(-3.22477518122051e-13 0 0)
(-2.698295321098416e-13 0 0)
(-3.657087486816259e-13 0 0)
(-3.187131557754197e-13 0 0)
(-3.008718629550051e-13 0 0)
(-3.23321284645761e-13 0 0)
(-3.252200261423292e-13 0 0)
(-3.116067905318199e-13 0 0)
(-3.145265598800469e-13 0 0)
(-3.260700919413783e-13 0 0)
(-2.740044521886045e-13 0 0)
(-3.636778473815631e-13 0 0)
(-3.027500662909813e-13 0 0)
(-3.225906455541087e-13 0 0)
(-3.233274564489609e-13 0 0)
(-3.080198169853265e-13 0 0)
(-3.258243547985798e-13 0 0)
(-2.919545024078795e-13 0 0)
(-3.579258538038648e-13 0 0)
(-2.913236066704627e-13 0 0)
(-3.430075509741155e-13 0 0)
(-3.270406190701777e-13 0 0)
(-3.088995251373873e-13 0 0)
(-3.317947292875859e-13 0 0)
(-3.181316795153547e-13 0 0)
(-3.229391759592584e-13 0 0)
(-2.795313149292092e-13 0 0)
(-3.751830772181358e-13 0 0)
(-3.001096928238245e-13 0 0)
(-3.400012711296394e-13 0 0)
(-3.303540705945829e-13 0 0)
(-3.101853806950886e-13 0 0)
(-3.32969180822346e-13 0 0)
(-3.26932337204739e-13 0 0)
(-3.496916980793479e-13 0 0)
(-2.728583068168341e-13 0 0)
(-3.623333815000198e-13 0 0)
(-3.289493967921203e-13 0 0)
(-3.371324402325307e-13 0 0)
(-3.247633255414673e-13 0 0)
(-3.187266526581976e-13 0 0)
(-3.343813871087769e-13 0 0)
(-2.968969037644248e-13 0 0)
(-3.513762833271179e-13 0 0)
(-3.40782984962635e-13 0 0)
(-3.28241684571716e-13 0 0)
(-3.243049972660314e-13 0 0)
)
;

boundaryField
{
    inlet
    {
        type            calculated;
        value           uniform (-2.982869618703976e-05 0 0);
    }
    outlet
    {
        type            calculated;
        value           uniform (-3.243049972660314e-13 0 0);
    }
    frontAndBack
    {
        type            empty;
    }
}


// ************************************************************************* //
