/*--------------------------------*- C++ -*----------------------------------*\
| =========                 |                                                 |
| \\      /  F ield         | OpenFOAM: The Open Source CFD Toolbox           |
|  \\    /   O peration     | Version:  v2012                                 |
|   \\  /    A nd           | Website:  www.openfoam.com                      |
|    \\/     M anipulation  |                                                 |
\*---------------------------------------------------------------------------*/
FoamFile
{
    version     2.0;
    format      ascii;
    class       volScalarField;
    location    "0.005";
    object      rho;
}
// * * * * * * * * * * * * * * * * * * * * * * * * * * * * * * * * * * * * * //

dimensions      [1 -3 0 0 0 0 0];


internalField   nonuniform List<scalar> 
1000
(
1.176234923219639
1.176286216520399
1.176248931171215
1.176166259530022
1.176143278263281
1.176093880033157
1.176054972321011
1.176051834699776
1.176010078391566
1.176007289490195
1.176009389491935
1.176008823500971
1.176019326813892
1.176033981102997
1.176045687813665
1.176089198021868
1.176117228370169
1.176161077612003
1.176215506934641
1.176256811708122
1.176313053750897
1.176366889570132
1.176421724466027
1.176478189303224
1.176530715751472
1.176585056977115
1.176633158005309
1.176677965114597
1.17672035258386
1.176754622012943
1.176800289395461
1.176808108712085
1.176809033521426
1.176807605711544
1.176805266247659
1.176797207152658
1.176788314740768
1.176770983983337
1.176746068220154
1.176715200144014
1.176676107208503
1.176629847339538
1.176578794538954
1.176524766925701
1.17646807487659
1.176412798831546
1.176357091270543
1.176302864569692
1.176250418692001
1.17619952253846
1.176152036223667
1.176108770000057
1.176063945291053
1.176021998058236
1.17601892275941
1.17601999771922
1.17602040223801
1.176023202651007
1.176034279300762
1.176036573781388
1.176056947971686
1.176082127047067
1.176095269334242
1.176143797127722
1.176181716747396
1.176222273592441
1.176287386081735
1.176335632743646
1.176395726635525
1.176455466664046
1.176508014668428
1.176564235507574
1.176614048590534
1.176662147483002
1.176706805358141
1.176756668868976
1.176798726433779
1.176800180629122
1.176799918015604
1.176800367766826
1.176793107201068
1.17679226700562
1.176780486229674
1.176763129131187
1.176754071316242
1.176719516931416
1.176691123402668
1.176658557547697
1.176603759001479
1.17656145980199
1.176503559216294
1.176443459859629
1.176387699847659
1.176325500283117
1.176269725271138
1.176215303814931
1.176163241912386
1.176118745690199
1.176060562759186
1.17602792637489
1.176027147582141
1.176027816479398
1.176029180169899
1.1760295077187
1.17604010072711
1.176045547441994
1.176053881491935
1.17608197224839
1.176095746628628
1.176127553081519
1.176168598856983
1.176201540881032
1.176255761303211
1.176306933318662
1.176360588447928
1.176422827197948
1.176480316412843
1.176539715967561
1.176596458202365
1.176650067904185
1.176697769631691
1.176756726286498
1.17679224225901
1.176793153055447
1.176792146689575
1.176791907039162
1.176788638090818
1.176783011471323
1.176778145851159
1.17676143842974
1.176748942019031
1.176731092367879
1.176694203859437
1.176672750367435
1.176630258851961
1.176577200074571
1.176538424117891
1.176475260791992
1.176417178494686
1.1763607106437
1.176295074099735
1.176238555834155
1.176180161435842
1.176127723576388
1.176060779018455
1.176032966792401
1.176032431081777
1.176033435403388
1.176034326578663
1.176036328838259
1.176043961803161
1.176047621617413
1.176061219204529
1.176078039718246
1.176092906948408
1.176124848350394
1.176152865074121
1.176187877347472
1.176236105048576
1.176279029374056
1.176333680261692
1.176392304317363
1.176447742817624
1.176511259406253
1.176570487846549
1.176628997507463
1.17668453682337
1.176754647080279
1.176786899863872
1.176786851667883
1.176787214408274
1.176786483051509
1.176781861143793
1.176781085259182
1.176771330373829
1.176760343379416
1.17675300574997
1.176725513335819
1.176707894869789
1.176680554241802
1.176638309131484
1.176606158291564
1.176554638759741
1.176502835305289
1.176450464414478
1.176386617395876
1.176327704879956
1.176264894002774
1.176201201865994
1.176145989038966
1.176066313087971
1.176037975635685
1.176037888048094
1.176036630631518
1.176039671525002
1.176041715230116
1.176044136023185
1.176055659365884
1.176060949277277
1.176076318158989
1.17609775586589
1.176112408676544
1.176147894283935
1.176178291558087
1.176212184787512
1.176266065395763
1.176307626534085
1.176362375709759
1.176424168515074
1.176478712401843
1.176543078338765
1.176605123091295
1.176661217608217
1.176736205365227
1.176782678289059
1.176783858030182
1.176783239632568
1.176783361465518
1.17677916125752
1.176776177767328
1.176771260999036
1.176758174545421
1.176750183330172
1.176731455363995
1.176709351272282
1.176687305117435
1.176651315396137
1.176617464683908
1.176574375385518
1.176524910689302
1.176474634577367
1.176414828537263
1.176355864014835
1.176292653187133
1.176226512505101
1.176167786814945
1.176083656922578
1.176043575435655
1.176042600933147
1.176041660151248
1.176044510672431
1.176045596863201
1.176049221076241
1.176057874422627
1.176063043507424
1.176078336372586
1.176093986418619
1.176110994129604
1.176141116761246
1.176166840152679
1.176203734311406
1.17624611615012
1.176288193384007
1.17634275560049
1.176395421384769
1.176453981095222
1.17651722233333
1.176577955507711
1.176640911790443
1.176713672135834
1.176775346346891
1.176778408936769
1.17677838246633
1.176777328227957
1.176776005902035
1.176772500899755
1.176766426117455
1.176759565188457
1.176748136860178
1.176732345514882
1.176715151981103
1.176689599360933
1.176661835037698
1.176627675137319
1.176588471731903
1.176543967107377
1.17649368818642
1.176440240488569
1.176380591239163
1.176318806134516
1.176254153315636
1.176190537219411
1.17611346558774
1.176050397876094
1.176047459230145
1.17604712155535
1.176048339296423
1.17605055321307
1.176051230091776
1.176060501102931
1.17606644689437
1.176076008701227
1.176094645656516
1.176108241160495
1.176134255178989
1.176160487779108
1.17619157056649
1.17623256267151
1.17627072086784
1.176322604341549
1.176373432936678
1.17642765277341
1.176491890574953
1.176550184861378
1.176614769261603
1.17667925546259
1.176757988606326
1.176775102579595
1.176775040022853
1.176774362202631
1.176772628252564
1.176767499106866
1.176766735906684
1.176758715740833
1.176744551696426
1.176737435061646
1.176717001326676
1.176693880232868
1.176673574242223
1.176636821865851
1.176602471915142
1.176563184651399
1.17651097585058
1.176463670052552
1.176404934789326
1.176343002124234
1.176282479840269
1.176213839880469
1.176148288213999
1.176062899266629
1.176052307297083
1.176052513535163
1.176052209541165
1.176054159515553
1.176056186077778
1.176061147688172
1.176067795878237
1.176077705754524
1.176091491368386
1.176106894772831
1.176129645742422
1.176154003906982
1.176183487943236
1.176220541414867
1.176258028906554
1.17630402591292
1.176353613443199
1.176406233577776
1.176465304739082
1.176524910918843
1.176589442454178
1.176649366062418
1.176732768599607
1.176769246986709
1.176769344893721
1.176769335826742
1.176768787291908
1.176763454057352
1.176763023048603
1.17675596111971
1.176743504505829
1.176738211225611
1.176718106240632
1.176698628072133
1.176679674006403
1.176644248183552
1.176615484210583
1.176575820294259
1.176528952640405
1.176483853744533
1.176426756597187
1.176369085013922
1.1763081869031
1.176240600633804
1.176180293159507
1.176090363147962
1.176056218868734
1.176055858542983
1.176056386012945
1.176057537593376
1.176058768230616
1.176063952229018
1.176069100327357
1.176078342767033
1.17609083114579
1.176104393882127
1.176125752587104
1.176147763230894
1.176175988712819
1.176209633982469
1.176245756980013
1.176289700493364
1.176335455872584
1.176387568292072
1.176443298009247
1.176501389092887
1.176564599972445
1.17662448045591
1.176698362248051
1.176761407175999
1.176764700036261
1.176764657521509
1.176763042301407
1.176762852363839
1.176757976761973
1.1767523279585
1.176748173855992
1.176732175487221
1.176722466690646
1.176706054073356
1.176677145676191
1.1766589226125
1.176622698386387
1.176584712460282
1.176549532853568
1.17649566914273
1.176448135921127
1.176393209695583
1.176328936996381
1.176269880784612
1.176205118706307
1.176129836559405
1.176063852229614
1.176060429627685
1.176060650008206
1.176061150837453
1.176063381608768
1.176066045239222
1.176072052991187
1.176079960537135
1.176088903142223
1.176105442298802
1.176120608919468
1.176142927232861
1.176169732674226
1.176198069453598
1.176234505079776
1.176274352995402
1.17631758820137
1.176368187935246
1.176420722581651
1.176477014118123
1.176538242857454
1.176599526527772
1.1766600021433
1.176743819605163
1.176760687638798
1.17676057138066
1.176760328430942
1.176758143528941
1.176757833862476
1.176749997339996
1.176743835981754
1.176738683386605
1.176719254893758
1.176708026881022
1.176688571190205
1.176658939458546
1.176635880776961
1.176597942698092
1.176559119391071
1.176517787381695
1.176465032146842
1.176414541508214
1.176355251894224
1.176293713116516
1.176230998205371
1.176166527467354
1.176080563233623
1.176065133222445
1.176065654838418
1.176064836146496
1.176066981068967
1.176069853063329
1.176072803551416
1.176080666903391
1.176091667900001
1.176098229448268
1.176119711314982
1.176139060737253
1.176158621925897
1.176193078695672
1.176222611383722
1.176260229108415
1.176304718702942
1.176348780203624
1.176401184344239
1.176455879976392
1.176512904822276
1.176575018676465
1.176632610661303
1.176711041931851
1.176755340739992
1.176756383217845
1.176755502120073
1.1767554893333
1.176752675020843
1.176747637787237
1.176746164503593
1.176733380142435
1.176722824874431
1.17671318911327
1.176686591103273
1.176670333460804
1.176643137025571
1.176605195256599
1.176576256866245
1.176529829014282
1.176483125786828
1.176435882010544
1.176375653714016
1.176319397093878
1.176256180167151
1.176195195891576
1.176112857641855
1.176070415819037
1.176069369593837
1.17606838959291
1.176071288157547
1.176072243977443
1.176074978908212
1.17608437683633
1.176088238347241
1.176100892652803
1.176118386985594
1.176131037280422
1.176158073155613
1.176183602793554
1.176211090700469
1.176252146115977
1.176288605423687
1.176332431236326
1.176384277221172
1.176433718512421
1.176491375106012
1.176549986910812
1.176608489641624
1.176673840493768
1.176745259597427
1.176751531948272
1.176752010313354
1.176750941826109
1.17674960422423
1.176746844874239
1.176740724656742
1.176734691668611
1.176724615249031
1.176709773910104
1.176695950310049
1.176672004624477
1.176648274897568
1.176619210746074
1.176582366514874
1.17654595258385
1.176500056138354
1.176451382633522
1.176399864101466
1.176340693798612
1.176281450941542
1.176220706247936
1.176152036084236
1.176079822990506
1.17607438117669
1.176074743981573
1.176074694645193
1.176076205912268
1.176080913321369
1.176082584737925
1.176092798815718
1.17610288726873
1.17611094418906
1.176134866646803
1.176149564334349
1.176173593230574
1.17620815946002
1.176234259384981
1.176276010713665
1.176318550210034
1.176361534867088
1.17641589981959
1.17646778349309
1.176524602243746
1.176586013571976
1.176641817288891
1.176722088443737
1.176747466293003
1.176747857296233
1.176747179261078
1.176745798968098
1.176744367982849
1.176738714711346
1.176733359789398
1.176725241433921
1.176712429263871
1.176696030476811
1.17667955750765
1.176653872939841
1.176626352203643
1.176595849868557
1.176556377288447
1.176516465545917
1.176469267690023
1.176418485815208
1.176363905866272
1.176305174965933
1.176244476314318
1.176184564734384
1.176101785910872
1.176078015151865
1.176078077509617
1.176077393422482
1.176080766985809
1.17608021481842
1.176086833360203
1.176092498485465
1.176099921720473
1.17611393041127
1.176128219606037
1.176146364542393
1.176171062169393
1.176196193642596
1.176228504968796
1.176264211657274
1.176303209283963
1.17634874554061
1.176395975877661
1.176448009030269
1.176503516480574
1.176560465686286
1.176616716950824
1.176687291308024
1.176741254856652
1.176743198419643
1.176743124458363
1.176741756001703
1.176741033596579
1.176736750981284
1.176731207724184
1.176724343388515
1.176712196935248
1.176699795809346
1.1766816799749
1.176660186307573
1.176635248875285
1.176604298390506
1.176570073375402
1.176530232804826
1.176486426665249
1.176437197193444
1.176384813289188
1.176328431552441
1.176268200870642
1.176211303067114
1.176135698480171
1.176083667851841
1.176082083017887
1.176082645128252
1.176083206659059
1.176084750987616
1.176088586423309
1.176094318506181
1.176101208362556
1.176113211987403
1.176125596920414
1.176143511290862
1.176164524901573
1.176188974074528
1.176218689866635
1.176251846599004
1.17628986194068
1.176331359016231
1.176378641055448
1.176427496028901
1.176481312617839
1.176537602239187
1.176594753294435
1.176652127561382
1.176729324777009
1.176743587849593
1.17674401785236
1.176743900847711
1.17674224365835
1.176739927572309
1.176737912306269
1.17672990098553
1.176724968654181
1.17671490877003
1.176699770674287
1.176688461429181
1.176665875946362
1.176645525401075
1.176622309069883
1.176590277364148
1.176563141915443
1.176529098366331
1.176493843241016
1.176458734172535
1.176415687702193
1.176411719191234
1.176411716172163
1.176411716172159
1.176411716172161
1.176411716172163
1.176411716172169
1.176411716172171
1.176411716172174
1.176411716172181
1.176411716172179
1.176411716172187
1.17641171617219
1.176411716172191
1.176411716172193
1.176411716172193
1.176411716172193
1.176411716172193
1.176411716172194
1.176411716172193
1.176411716172194
1.176411716172193
1.176411716172193
1.176411716172194
1.176411716172195
1.176411716172193
1.176411716172192
1.176411716172195
1.176411716172193
1.176411716172194
1.176411716172194
1.176411716172193
1.176411716172193
1.176411716172193
1.176411716172194
1.176411716172193
1.176411716172195
1.176411716172194
1.176411716172193
1.176411716172195
1.176411716172193
1.176411716172194
1.176411716172193
1.176411716172194
1.176411716172195
1.176411716172195
1.176411716172193
1.176411716172195
1.176411716172195
1.176411716172194
1.176411716172193
1.176411716172195
1.176411716172195
1.176411716172195
1.176411716172195
1.176411716172194
1.176411716172195
1.176411716172197
1.176411716172193
1.176411716172195
1.176411716172196
1.176411716172194
1.176411716172195
1.176411716172195
1.176411716172195
1.176411716172196
1.176411716172197
1.176411716172195
1.176411716172196
1.176411716172196
1.176411716172197
1.176411716172195
1.176411716172197
1.176411716172196
1.176411716172197
1.176411716172195
1.176411716172197
1.176411716172196
1.176411716172196
1.176411716172197
1.176411716172195
1.176411716172197
1.176411716172196
1.176411716172197
1.176411716172196
1.176411716172196
1.176411716172196
1.176411716172196
1.176411716172196
1.176411716172196
1.176411716172196
1.176411716172197
1.176411716172195
1.176411716172196
1.176411716172195
1.176411716172195
1.176411716172196
1.176411716172195
1.176411716172195
1.176411716172195
1.176411716172196
1.176411716172195
1.176411716172196
1.176411716172195
1.176411716172196
1.176411716172195
1.176411716172195
1.176411716172194
1.176411716172195
1.176411716172195
1.176411716172196
1.176411716172195
1.176411716172196
1.176411716172194
1.176411716172196
1.176411716172195
1.176411716172196
1.176411716172196
1.176411716172195
1.176411716172196
1.176411716172195
1.176411716172196
1.176411716172196
1.176411716172195
1.176411716172197
1.176411716172194
1.176411716172198
1.176411716172194
1.176411716172197
1.176411716172196
1.176411716172197
1.176411716172196
1.176411716172197
1.176411716172197
1.176411716172196
1.176411716172197
1.176411716172197
1.176411716172196
1.176411716172197
1.176411716172198
1.176411716172197
1.176411716172197
1.176411716172197
1.176411716172198
1.176411716172197
1.176411716172198
1.176411716172198
1.176411716172198
1.176411716172198
1.176411716172197
1.176411716172198
1.176411716172198
1.176411716172198
1.176411716172198
1.176411716172198
1.176411716172198
1.176411716172199
1.176411716172199
1.176411716172198
1.176411716172198
1.176411716172199
1.176411716172198
1.176411716172198
1.176411716172198
1.176411716172197
1.176411716172199
1.176411716172197
1.176411716172199
1.176411716172199
1.176411716172197
1.176411716172199
1.176411716172197
1.176411716172199
1.176411716172196
1.176411716172199
1.176411716172198
1.176411716172197
1.176411716172197
1.176411716172198
1.176411716172197
1.176411716172197
1.176411716172198
1.176411716172196
1.176411716172197
1.176411716172197
1.176411716172197
1.176411716172197
1.176411716172197
1.176411716172197
1.176411716172195
1.176411716172199
1.176411716172196
1.176411716172197
1.176411716172197
1.176411716172196
1.176411716172197
1.176411716172196
1.176411716172198
1.176411716172196
1.176411716172197
1.176411716172196
1.176411716172198
1.176411716172196
1.176411716172197
1.176411716172195
1.176411716172197
1.176411716172197
1.176411716172196
1.176411716172196
1.176411716172197
1.176411716172195
1.176411716172197
1.176411716172195
1.176411716172197
1.176411716172194
1.176411716172197
1.176411716172194
1.176411716172197
1.176411716172194
1.176411716172197
1.176411716172195
1.176411716172196
1.176411716172196
1.176411716172196
1.176411716172195
1.176411716172195
1.176411716172194
1.176411716172197
1.176411716172195
1.176411716172195
1.176411716172195
1.176411716172195
1.176411716172194
1.176411716172195
1.176411716172195
1.176411716172195
1.176411716172193
1.176411716172195
1.176411716172196
1.176411716172194
1.176411716172195
1.176411716172194
1.176411716172195
1.176411716172195
1.176411716172195
1.176411716172194
1.176411716172195
1.176411716172193
1.176411716172196
1.176411716172193
1.176411716172197
1.176411716172193
1.176411716172196
1.176411716172195
1.176411716172195
1.176411716172195
1.176411716172194
1.176411716172196
1.176411716172195
1.176411716172195
1.176411716172195
1.176411716172195
1.176411716172194
1.176411716172194
1.176411716172194
1.176411716172194
1.176411716172194
1.176411716172194
1.176411716172194
1.176411716172195
1.176411716172193
1.176411716172194
1.176411716172193
1.176411716172194
1.176411716172194
1.176411716172194
1.176411716172194
1.176411716172194
1.176411716172193
1.176411716172195
1.176411716172193
1.176411716172193
1.176411716172195
1.176411716172194
1.176411716172193
1.176411716172193
1.176411716172195
1.176411716172193
1.176411716172195
1.176411716172193
1.176411716172194
1.176411716172193
1.176411716172195
1.176411716172192
1.176411716172194
1.176411716172194
1.176411716172195
1.176411716172194
1.176411716172194
1.176411716172194
1.176411716172194
1.176411716172195
1.176411716172193
)
;

boundaryField
{
    inlet
    {
        type            calculated;
        value           uniform 1.176271021779363;
    }
    outlet
    {
        type            calculated;
        value           uniform 1.176411716172193;
    }
    frontAndBack
    {
        type            empty;
    }
}


// ************************************************************************* //
