/*--------------------------------*- C++ -*----------------------------------*\
| =========                 |                                                 |
| \\      /  F ield         | OpenFOAM: The Open Source CFD Toolbox           |
|  \\    /   O peration     | Version:  v2012                                 |
|   \\  /    A nd           | Website:  www.openfoam.com                      |
|    \\/     M anipulation  |                                                 |
\*---------------------------------------------------------------------------*/
FoamFile
{
    version     2.0;
    format      ascii;
    class       volScalarField;
    location    "0.005";
    object      T;
}
// * * * * * * * * * * * * * * * * * * * * * * * * * * * * * * * * * * * * * //

dimensions      [0 0 0 1 0 0 0];


internalField   nonuniform List<scalar> 
1000
(
299.9823892600446
299.9858953331707
299.9810979973079
299.9727913323192
299.9711660758088
299.9669131957358
299.963338648639
299.9632842527312
299.9589347094028
299.9586613377335
299.9589306769111
299.958973815794
299.960114212065
299.9616224081901
299.9627921239089
299.9671824957176
299.9700044448147
299.9744492318194
299.9799812355289
299.9841788149139
299.989907907987
299.995397633934
300.0009946931471
300.0067615701705
300.0121280301361
300.0176805833841
300.0225961451851
300.0271740957826
300.0315024961576
300.0350005219004
300.0396598527479
300.0404572652128
300.0405507432811
300.0404021231648
300.0401613913515
300.0393381845969
300.0384304382944
300.0366622169384
300.0341202500299
300.0309709522173
300.0269823056049
300.0222621109822
300.0170525746265
300.0115391905603
300.0057536812254
300.0001124424942
299.9944269815526
299.9888924878523
299.9835396167429
299.9783448371793
299.9734980280465
299.9690819007916
299.9645065357151
299.9602248881196
299.9599109962461
299.9600207520718
299.9600620677872
299.9603479239074
299.9614785758548
299.9617127744361
299.9637924623846
299.9663626154955
299.9677039627105
299.9726573221431
299.9765277525433
299.9806670679725
299.9873128641498
299.9922368837754
299.998369949256
300.004466786837
300.0098293838564
300.0155667283651
300.0206499913697
300.0255582050229
300.0301151949047
300.0352031862313
300.039494684568
300.0396430588479
300.0396162643744
300.0396621489365
300.0389213087448
300.0388355753466
300.0376334958881
300.0358624339622
300.0349381377125
300.0314122706529
300.0285149782543
300.0251917578081
300.0195999754937
300.0152833732423
300.0093746157205
300.0032413637273
299.9975506702173
299.9912027138664
299.9855102183874
299.9799557402109
299.9746419599179
299.9701001825484
299.9641613544295
299.9608300434049
299.9607505473803
299.9608188263717
299.960958025388
299.9609914618168
299.9620727522197
299.9626287260487
299.9634793879672
299.9663467586216
299.9677527033292
299.9709991985433
299.9751887922115
299.978550987925
299.9840850478161
299.9893078031254
299.9947837584568
300.0011356958109
300.0070026703629
300.0130644446978
300.0188548901076
300.0243255129247
300.0291930712601
300.0352090205026
300.0388330239613
300.03892595964
300.0388232888176
300.0387988453112
300.0384653024429
300.0378911818379
300.0373947150937
300.0356899493352
300.0344148262565
300.0325934397788
300.028829412227
300.0266401773125
300.0223041431158
300.0168898406897
300.0129326521287
300.006486828073
300.0005593372526
299.9947963198518
299.9880975057047
299.9823290686915
299.9763690143238
299.9710166306444
299.9641835774238
299.9613446831234
299.9612900078678
299.9613925370732
299.9614835187404
299.9616879088717
299.9624670541596
299.9628406341009
299.9642286003643
299.9659455414607
299.9674630469294
299.9707233825905
299.9735830329201
299.977156621078
299.9820790903036
299.986460043564
299.9920377705851
299.998020888774
300.0036786242437
300.0101606591178
300.0162049111195
300.0221755938192
300.0278429133169
300.0349970643583
300.038288092531
300.0382831802906
300.0383202016189
300.0382455873836
300.0377739882142
300.0376948264582
300.0366994719109
300.0355783975932
300.0348296568419
300.0320244032569
300.0302266106058
300.0274366870532
300.0231259420175
300.0198450217392
300.01458761209
300.0093011053623
300.0039564379631
299.9974405634882
299.991427976555
299.985017405344
299.9785167367096
299.9728810662751
299.964748605119
299.9618561194699
299.9618471848668
299.9617188313305
299.9620292427579
299.9622378614392
299.9624849620085
299.963661207434
299.9642011738927
299.9657699259355
299.9679581405937
299.969453735857
299.9730758048195
299.9761784059129
299.9796376828162
299.9851371041981
299.9893788587648
299.9949664836116
300.0012729308498
300.0068392456569
300.0134078766586
300.0197394157407
300.0254634440614
300.0331153219189
300.0378574110574
300.0379777876303
300.0379146955454
300.0379271324165
300.0374985591928
300.037194136313
300.0366924400714
300.0353571438806
300.0345417313876
300.0326307515896
300.0303752721836
300.0281256214698
300.0244531619929
300.0209988687326
300.0166017341085
300.0115539399036
300.0064231375943
300.0003197044236
299.9943019040758
299.9878505948625
299.9811000804217
299.9751059606421
299.9665189129063
299.9624277115479
299.9623282437686
299.9622322093512
299.962523183201
299.9626340579997
299.9630039963612
299.9638872852969
299.964414908742
299.9659759063554
299.9675733567454
299.9693093356198
299.9723839944074
299.9750095320046
299.9787752059524
299.9831009477383
299.9873954255398
299.9929641113587
299.9983390427017
300.0043153316528
300.0107692553141
300.0169669403595
300.0233913792055
300.0308158991602
300.0371092188552
300.0374217120668
300.0374190155806
300.0373114493411
300.0371765269081
300.0368188890039
300.0361990341628
300.0354989568681
300.0343328231237
300.0327214956
300.0309670530922
300.0283596468937
300.0255265090097
300.0220406915286
300.0180401422177
300.0134985222667
300.0083675372039
300.0029130044092
299.9968254407831
299.9905196914931
299.9839210451664
299.9774280503006
299.9695613035278
299.9631239809437
299.9628240156912
299.9627895473877
299.9629138521373
299.9631398375457
299.9632089287459
299.964155266142
299.9647621792518
299.9657381704413
299.9676405127109
299.9690282109569
299.9716834759388
299.9743610240718
299.9775335438071
299.9817174670252
299.9856119840421
299.9909073181249
299.9960948218247
300.0016282527751
300.0081839699371
300.0141328560735
300.0207235498091
300.0273037266737
300.0353379042863
300.0370841681195
300.0370777842153
300.0370086223062
300.0368316964719
300.0363083370785
300.036230461632
300.0354120993276
300.0339668380773
300.0332406479328
300.031155597997
300.0287963201088
300.0267242142976
300.0229739042952
300.0194686583846
300.0154594463903
300.0101316140029
300.0053038956959
299.9993096890678
299.9929889627071
299.9868119225656
299.9798063825337
299.9731153352596
299.9643998583865
299.9633186799948
299.9633397295889
299.9633086965517
299.9635077363922
299.9637145932961
299.9642210415179
299.9648996454432
299.9659111745382
299.9673183077493
299.9688905551206
299.971212772001
299.9736989980496
299.9767083621348
299.9804902984031
299.9843164130096
299.9890109710254
299.9940718744054
299.9994421160019
300.0054705640883
300.0115534655978
300.0181388325697
300.0242535388606
300.0327642090371
300.0364864506147
300.0364964374908
300.0364955103908
300.0364395367366
300.0358953491624
300.0358513704288
300.0351307834272
300.0338597406928
300.0333196051004
300.0312681059756
300.0292805532725
300.027346398368
300.0237314794171
300.0207962365998
300.0167486455398
300.0119659031646
300.0073634471435
300.0015364927578
299.9956506817975
299.9894354316802
299.9825374526026
299.9763818228737
299.9672028856709
299.9637177029592
299.9636809209364
299.9637347596117
299.9638523038995
299.9639779170543
299.9645070673176
299.9650325517295
299.9659759550549
299.9672506796559
299.9686350417132
299.9708151514404
299.9730617698185
299.9759426920459
299.9793767689189
299.9830636385096
299.9875486510731
299.9922184641209
299.9975369582439
300.0032244769732
300.0091527755502
300.0156034155428
300.0217139982245
300.0292529967627
300.0356862398976
300.0360222299463
300.0360178915757
300.0358530812693
300.0358337012585
300.0353362023936
300.0347598053997
300.0343359171871
300.0327034715967
300.0317127863862
300.0300380136723
300.0270882003562
300.0252286226949
300.0215321605701
300.0176558818887
300.014065784345
300.0085690414189
300.0037181018587
299.9981125198602
299.99155301216
299.9855255461897
299.978915639434
299.9712315894102
299.964496624352
299.9641472570281
299.9641697482907
299.9642208662383
299.9644485673843
299.9647204529205
299.965333683098
299.9661408330684
299.9670536194624
299.9687418119645
299.9702898757998
299.9725679036752
299.9753039085349
299.9781961468939
299.9819149792562
299.9859820032035
299.9903946302065
299.9955588066712
300.0009203116234
300.0066650041755
300.0129134763126
300.019167392878
300.0253383001339
300.0338913867397
300.0356125652406
300.035600700606
300.0355759093022
300.0353529626169
300.035321362537
300.034521739356
300.0338930440741
300.0333672618623
300.0313848073926
300.0302390889149
300.0282537791091
300.0252301210048
300.0228770813245
300.0190056839018
300.0150438823497
300.0108259143329
300.0054421791997
300.0002893520896
299.9942383562841
299.9879577028749
299.9815568412737
299.9749762327477
299.9662021008693
299.9646271002484
299.9646803429741
299.9645967767971
299.9648157187905
299.9651088714494
299.9654100356738
299.9662126709151
299.9673355776654
299.9680053064918
299.970198001988
299.972173014844
299.9741695627812
299.977686526841
299.9807007966115
299.9845402020179
299.9890809408947
299.9935778172033
299.9989260540327
300.0045079835172
300.0103274802394
300.0166661555358
300.0225430394701
300.0305464266738
300.0350667263127
300.0351730972202
300.0350831928765
300.0350818898383
300.03479472016
300.0342807261533
300.0341303868203
300.032825887138
300.0317488330802
300.0307655726294
300.0280515238188
300.0263925385495
300.0236172879708
300.019745577536
300.016792431037
300.0120545413212
300.0072884557717
300.0024669926037
299.9963203495998
299.9905788164378
299.9841267357302
299.9779022484695
299.9694981467902
299.9651660790755
299.9650592847277
299.9649592522595
299.9652551174672
299.9653526812294
299.9656318414193
299.9665911196344
299.9669852699884
299.9682769168792
299.970062596215
299.9713537884099
299.9741133422378
299.9767191057368
299.9795246526166
299.9837150156181
299.9874361426021
299.9919089988781
299.9972003515891
300.0022460907417
300.008130098737
300.0141114339286
300.0200815037243
300.0267499673635
300.0340378225449
300.0346778318965
300.0347266453541
300.0346176194903
300.0344811361314
300.0341995791858
300.0335750817085
300.0329594811472
300.0319312811295
300.0304168741648
300.0290062842261
300.0265628282114
300.0241413705193
300.0211755147105
300.0174157185538
300.0136997117713
300.0090159695649
300.0040487049432
299.9987909375271
299.9927521325919
299.986705719282
299.980505902167
299.9734967139834
299.9661260770726
299.965570603793
299.9656076343441
299.9656026004831
299.9657568595186
299.9662373592907
299.9664079641856
299.9674505416316
299.9684802914556
299.9693026500772
299.971744460001
299.9732446306159
299.9756971923551
299.9792253157946
299.9818891596811
299.9861504630181
299.9904921287315
299.9948790474401
300.000427406446
300.0057222869313
300.0115207214424
300.0177877420004
300.0234819739052
300.0316732172808
300.0342627663555
300.0343026630106
300.0342334760466
300.0340926309583
300.0339466121913
300.0333697627415
300.0328233500094
300.0319949548445
300.0306876019007
300.029014263991
300.0273333182708
300.0247123948995
300.0219040685495
300.0187914032766
300.0147633403026
300.0106903436995
300.0058737107043
300.0006912102536
299.9951208863055
299.989126844318
299.9829318104993
299.9768166037455
299.9683676425981
299.9659413123865
299.965947677381
299.9658778501084
299.9662222020706
299.9661658394905
299.966841415166
299.967419668372
299.9681773662214
299.9696072551434
299.971065761398
299.9729177996901
299.9754386632926
299.9780037553799
299.9813016405596
299.9849460156763
299.9889261825024
299.9935736213977
299.9983938166038
300.0037040507119
300.0093687272832
300.0151803430601
300.0209205772334
300.0281221722321
300.0336287484854
300.0338270642482
300.0338195197915
300.0336798864211
300.0336061729807
300.0331691767319
300.032603545768
300.0319031056531
300.0306636829881
300.029398257656
300.0275496890064
300.0253564229849
300.0228116997833
300.0196533561113
300.0161607890753
300.0120951003728
300.0076246210901
300.0026005764628
299.9972544664591
299.9915002153935
299.985352973672
299.9795456523162
299.971828826528
299.9665181014762
299.9663563272718
299.9664137034355
299.966471018269
299.9666286534143
299.9670201462966
299.9676052363598
299.9683084946829
299.969533724901
299.9707978573391
299.9726263739489
299.9747712124133
299.9772666731538
299.9802996602286
299.9836837858132
299.987563739377
299.9917989489819
299.9966244895951
300.0016104341026
300.0071025618605
300.0128469702214
300.0186791479534
300.0245336651582
300.032411215815
300.0338666010153
300.0339104778115
300.0338985388902
300.0337294407479
300.0334931103264
300.0332874723586
300.0324700059764
300.0319667131287
300.0309401974273
300.0293955054137
300.0282414773051
300.025936818048
300.0238601816197
300.0214910586006
300.0182223871224
300.0154532503651
300.0119791387042
300.0083813829775
300.0047983181105
300.0004053201265
300.0000003081145
299.9999999999969
299.9999999999965
299.9999999999968
299.9999999999969
299.9999999999975
299.9999999999977
299.999999999998
299.9999999999988
299.9999999999985
299.9999999999995
299.9999999999995
299.9999999999998
300.0000000000001
299.9999999999999
300.0000000000002
300
300.0000000000002
299.9999999999999
300.0000000000002
300.0000000000002
300.0000000000001
300.0000000000002
300.0000000000001
300.0000000000002
299.9999999999999
300.0000000000004
299.9999999999999
300.0000000000003
300.0000000000001
300.0000000000002
300.0000000000001
300.0000000000001
300.0000000000002
300.0000000000001
300.0000000000002
300.0000000000002
300.0000000000001
300.0000000000002
300.0000000000001
300.0000000000002
300.0000000000001
300.0000000000002
300.0000000000001
300.0000000000003
299.9999999999999
300.0000000000003
300.0000000000001
300.0000000000001
300.0000000000001
300.0000000000002
300.0000000000002
300.0000000000002
300.0000000000002
300.0000000000002
300.0000000000002
300.0000000000003
300.0000000000001
300.0000000000002
300.0000000000003
300.0000000000002
300.0000000000001
300.0000000000002
300.0000000000001
300.0000000000002
300.0000000000003
299.9999999999999
300.0000000000003
300.0000000000001
300.0000000000003
300.0000000000002
300.0000000000003
300.0000000000002
300.0000000000003
300.0000000000002
300.0000000000003
300.0000000000003
300.0000000000001
300.0000000000004
300.0000000000001
300.0000000000003
300.0000000000002
300.0000000000003
300.0000000000002
300.0000000000003
300.0000000000002
300.0000000000003
300.0000000000002
300.0000000000003
300.0000000000002
300.0000000000003
300.0000000000003
300.0000000000002
300.0000000000005
300.0000000000001
300.0000000000004
300.0000000000003
300.0000000000002
300.0000000000004
300.0000000000003
300.0000000000003
300.0000000000003
300.0000000000003
300.0000000000003
300.0000000000005
300.0000000000002
300.0000000000003
300.0000000000002
300.0000000000004
300.0000000000003
300.0000000000004
300.0000000000003
300.0000000000002
300.0000000000003
300.0000000000003
300.0000000000002
300.0000000000003
300.0000000000002
300.0000000000003
300.0000000000003
300.0000000000003
300.0000000000003
300.0000000000003
300.0000000000003
300.0000000000002
300.0000000000005
300.0000000000001
300.0000000000005
300.0000000000002
300.0000000000004
300.0000000000003
300.0000000000003
300.0000000000005
300.0000000000002
300.0000000000003
300.0000000000004
300.0000000000003
300.0000000000002
300.0000000000004
300.0000000000003
300.0000000000003
300.0000000000003
300.0000000000004
300.0000000000002
300.0000000000004
300.0000000000003
300.0000000000003
300.0000000000003
300.0000000000003
300.0000000000003
300.0000000000003
300.0000000000002
300.0000000000003
300.0000000000003
300.0000000000003
300.0000000000005
300.0000000000004
300.0000000000004
300.0000000000004
300.0000000000004
300.0000000000003
300.0000000000004
300.0000000000003
300.0000000000003
300.0000000000005
300.0000000000002
300.0000000000005
300.0000000000005
300.0000000000002
300.0000000000006
300.0000000000003
300.0000000000005
300.0000000000003
300.0000000000004
300.0000000000005
300.0000000000003
300.0000000000003
300.0000000000005
300.0000000000003
300.0000000000005
300.0000000000004
300.0000000000002
300.0000000000004
300.0000000000003
300.0000000000003
300.0000000000003
300.0000000000003
300.0000000000003
300.0000000000002
300.0000000000005
300.0000000000003
300.0000000000003
300.0000000000003
300.0000000000003
300.0000000000003
300.0000000000002
300.0000000000004
300.0000000000003
300.0000000000003
300.0000000000002
300.0000000000003
300.0000000000003
300.0000000000002
300.0000000000003
300.0000000000002
300.0000000000005
300.0000000000001
300.0000000000005
300.0000000000001
300.0000000000003
300.0000000000002
300.0000000000003
300.0000000000003
300
300.0000000000004
300.0000000000001
300.0000000000004
300.0000000000001
300.0000000000003
300.0000000000002
300.0000000000003
300.0000000000003
300.0000000000002
300.0000000000002
300.0000000000001
300.0000000000002
300.0000000000002
300.0000000000002
300.0000000000003
300
300.0000000000003
299.9999999999999
300.0000000000002
300.0000000000001
300.0000000000002
299.9999999999999
300.0000000000002
300.0000000000002
299.9999999999999
300.0000000000001
300.0000000000001
300.0000000000001
300.0000000000002
299.9999999999999
300.0000000000002
299.9999999999999
300.0000000000001
300.0000000000001
300.0000000000001
300.0000000000001
299.9999999999999
300.0000000000002
300
300.0000000000001
300
300
300.0000000000002
300.0000000000001
300.0000000000001
300.0000000000002
300.0000000000001
300.0000000000002
299.9999999999998
300.0000000000002
299.9999999999999
300
300
300.0000000000001
299.9999999999999
299.9999999999999
300
299.9999999999999
300.0000000000001
300
299.9999999999999
300
300
299.9999999999999
300.0000000000001
299.9999999999999
300
300.0000000000001
300
300
300.0000000000001
300.0000000000001
300
300.0000000000001
299.9999999999999
300.0000000000001
300.0000000000001
300
299.9999999999999
300
300.0000000000001
300
300.0000000000001
300
300.0000000000001
300
299.9999999999999
299.9999999999999
)
;

boundaryField
{
    inlet
    {
        type            fixedValue;
        value           uniform 300;
    }
    outlet
    {
        type            inletOutlet;
        inletValue      uniform 300;
        value           uniform 300;
    }
    frontAndBack
    {
        type            empty;
    }
}


// ************************************************************************* //
