/*--------------------------------*- C++ -*----------------------------------*\
| =========                 |                                                 |
| \\      /  F ield         | OpenFOAM: The Open Source CFD Toolbox           |
|  \\    /   O peration     | Version:  v2012                                 |
|   \\  /    A nd           | Website:  www.openfoam.com                      |
|    \\/     M anipulation  |                                                 |
\*---------------------------------------------------------------------------*/
FoamFile
{
    version     2.0;
    format      ascii;
    class       volVectorField;
    location    "0.005";
    object      UMean;
}
// * * * * * * * * * * * * * * * * * * * * * * * * * * * * * * * * * * * * * //

dimensions      [0 1 -1 0 0 0 0];


internalField   nonuniform List<vector> 
1000
(
(-3.358008037852401e-05 0 0)
(3.44521276095836e-05 0 0)
(5.925988276978933e-05 0 0)
(0.0001955783394568454 0 0)
(0.0002239019301794827 0 0)
(0.0003373488650151008 0 0)
(0.0004954998869891899 0 0)
(0.0006319460055140738 0 0)
(0.0007509324318064436 0 0)
(0.0009585773884275078 0 0)
(0.00112160605613859 0 0)
(0.001268182842786864 0 0)
(0.001452887583890489 0 0)
(0.001650450938749077 0 0)
(0.001774229584248147 0 0)
(0.001925849051749997 0 0)
(0.002115590658645578 0 0)
(0.002214735557033531 0 0)
(0.002324049433999199 0 0)
(0.00243164600175324 0 0)
(0.002507476931534239 0 0)
(0.002552077510444542 0 0)
(0.002555132432892876 0 0)
(0.002606972757207995 0 0)
(0.002576898445398417 0 0)
(0.002515911954595508 0 0)
(0.002431828765488965 0 0)
(0.002403967362826623 0 0)
(0.002287682327776897 0 0)
(0.002090025843016947 0 0)
(0.002018294491807661 0 0)
(0.00189193583637884 0 0)
(0.001646483006404034 0 0)
(0.001460360147436755 0 0)
(0.00140509792563751 0 0)
(0.001170317314290294 0 0)
(0.0009653839110641243 0 0)
(0.0008557101203918632 0 0)
(0.0007236357624261404 0 0)
(0.0005296865372618003 0 0)
(0.0003798500320245107 0 0)
(0.0003183491283423632 0 0)
(0.0001924104510294781 0 0)
(0.0001020883251159682 0 0)
(3.718817972216935e-05 0 0)
(3.473637149353051e-05 0 0)
(1.35131222924203e-05 0 0)
(-2.160273429079935e-06 0 0)
(6.512209172678755e-05 0 0)
(0.0001234225127892786 0 0)
(0.0001923606673941088 0 0)
(0.0002972933970010382 0 0)
(0.0004351023338629977 0 0)
(0.000545459900852628 0 0)
(0.0007251437450147391 0 0)
(0.0009043582994427191 0 0)
(0.001049150778009614 0 0)
(0.001220154566928137 0 0)
(0.001395647015348269 0 0)
(0.001551501865097161 0 0)
(0.001713534369984326 0 0)
(0.001867726042793761 0 0)
(0.001999451971013763 0 0)
(0.00215134707773458 0 0)
(0.002280006825077319 0 0)
(0.002362730548868967 0 0)
(0.002461649668761242 0 0)
(0.002527492501495951 0 0)
(0.002572915911498243 0 0)
(0.00258218665931637 0 0)
(0.002572442161842197 0 0)
(0.00253987365921426 0 0)
(0.002501666630492391 0 0)
(0.002405258024825554 0 0)
(0.002303468744486468 0 0)
(0.002211083371358464 0 0)
(0.002058859851692686 0 0)
(0.001881794896431128 0 0)
(0.001743261402269377 0 0)
(0.001576662890230191 0 0)
(0.001372321430660628 0 0)
(0.001253287522734348 0 0)
(0.001092953373785421 0 0)
(0.0008970434482667444 0 0)
(0.0007621826599333247 0 0)
(0.0006362540782922988 0 0)
(0.0004770617488856946 0 0)
(0.0003439105921180011 0 0)
(0.0002584984039738664 0 0)
(0.0001555192039627967 0 0)
(8.568164772917169e-05 0 0)
(3.030189734338647e-05 0 0)
(1.901829013772084e-05 0 0)
(1.188017822477969e-05 0 0)
(4.144783083628542e-05 0 0)
(8.332406195776386e-05 0 0)
(0.0001671846696290685 0 0)
(0.0002660258500438582 0 0)
(0.0003770797312774117 0 0)
(0.0005105936015716481 0 0)
(0.0006797678930821145 0 0)
(0.0008495526676708029 0 0)
(0.001005965708461862 0 0)
(0.001161588177085154 0 0)
(0.001334531827167093 0 0)
(0.001498242872891054 0 0)
(0.001640396671040772 0 0)
(0.001800899645608358 0 0)
(0.001952123725907939 0 0)
(0.002080987923424061 0 0)
(0.002203976864510031 0 0)
(0.002326729715478705 0 0)
(0.002418375817168906 0 0)
(0.002467076290556 0 0)
(0.002556572953136074 0 0)
(0.00258613059764273 0 0)
(0.002553782485777739 0 0)
(0.002572651165179431 0 0)
(0.002535816811084517 0 0)
(0.002419594329747696 0 0)
(0.002355218076117043 0 0)
(0.00226930800852974 0 0)
(0.002086724571495488 0 0)
(0.001934605344772333 0 0)
(0.0018102183921846 0 0)
(0.001613632262925454 0 0)
(0.001445926503779852 0 0)
(0.001315365876189037 0 0)
(0.001145234031471123 0 0)
(0.0009622857692845144 0 0)
(0.0008579079696123134 0 0)
(0.0006853818258257933 0 0)
(0.0005317233950650824 0 0)
(0.0004361763158012813 0 0)
(0.0003174265331158001 0 0)
(0.0001912806293231837 0 0)
(0.0001315674258400495 0 0)
(8.778456272317981e-05 0 0)
(1.278288498716194e-05 0 0)
(2.005741776136936e-05 0 0)
(3.780622866145924e-05 0 0)
(6.926153357183519e-05 0 0)
(0.0001181014542032948 0 0)
(0.0002342678847424969 0 0)
(0.0003313500117221295 0 0)
(0.0004626472930310878 0 0)
(0.0006427083416920792 0 0)
(0.000777101740726148 0 0)
(0.0009659127596997749 0 0)
(0.001118861235430858 0 0)
(0.00125773778306021 0 0)
(0.001434514746459153 0 0)
(0.001612164925483416 0 0)
(0.001714059123612545 0 0)
(0.0018701135188404 0 0)
(0.002070145664170254 0 0)
(0.00211752661309323 0 0)
(0.002248738501672236 0 0)
(0.002401251889883991 0 0)
(0.002439539901663051 0 0)
(0.002481546913122286 0 0)
(0.002583242384427121 0 0)
(0.002585569876845482 0 0)
(0.002524980653250468 0 0)
(0.002561415011528391 0 0)
(0.002495368383803194 0 0)
(0.002365783371330899 0 0)
(0.002285626229417655 0 0)
(0.002198133793593403 0 0)
(0.00196560806114098 0 0)
(0.001832562395857114 0 0)
(0.001700508015620256 0 0)
(0.001504842997511498 0 0)
(0.001352831661805204 0 0)
(0.001221149210591581 0 0)
(0.001043063360697976 0 0)
(0.0008829923065664642 0 0)
(0.0007819503352822066 0 0)
(0.0006018282962934879 0 0)
(0.0004729897097147172 0 0)
(0.0003935196887073408 0 0)
(0.0002557834650615004 0 0)
(0.0001552687741465305 0 0)
(0.0001310177219672792 0 0)
(6.11760923610917e-05 0 0)
(-3.254771131472933e-06 0 0)
(6.478868226425134e-05 0 0)
(5.820629327253433e-05 0 0)
(8.402325524356361e-05 0 0)
(0.0002046815717850325 0 0)
(0.0003055913379179004 0 0)
(0.0003960870808883918 0 0)
(0.0005962758053302169 0 0)
(0.0007572843285400593 0 0)
(0.000883007226266136 0 0)
(0.001063609582746499 0 0)
(0.00123277926983118 0 0)
(0.001366413800526837 0 0)
(0.001515966034681904 0 0)
(0.00170581356506262 0 0)
(0.001808365257716573 0 0)
(0.001956713986345199 0 0)
(0.002102888589122964 0 0)
(0.002206325998387849 0 0)
(0.002309535343488167 0 0)
(0.00240740277281817 0 0)
(0.002476819672490056 0 0)
(0.002521132410158244 0 0)
(0.002566551713958809 0 0)
(0.002552804487883102 0 0)
(0.002556043236978471 0 0)
(0.00249066097248989 0 0)
(0.002428219794074634 0 0)
(0.002333427944080133 0 0)
(0.002212296778130038 0 0)
(0.002040885929969974 0 0)
(0.00189751319591863 0 0)
(0.001742550577238268 0 0)
(0.001565878821653506 0 0)
(0.001424824110393862 0 0)
(0.00127365092637294 0 0)
(0.001103866082879664 0 0)
(0.0009599882135641707 0 0)
(0.0008291700787047517 0 0)
(0.0006694470214547287 0 0)
(0.0005446354561969992 0 0)
(0.0004379421302978847 0 0)
(0.0003148730162205313 0 0)
(0.000221499397914236 0 0)
(0.0001582677170680817 0 0)
(9.379484721810745e-05 0 0)
(4.274462747569655e-05 0 0)
(6.064515300626043e-05 0 0)
(6.148912491832866e-05 0 0)
(9.113741991602264e-05 0 0)
(0.000166084570357482 0 0)
(0.0002681072788376157 0 0)
(0.0003809340921414034 0 0)
(0.0005376755039470206 0 0)
(0.0006995597816631173 0 0)
(0.0008559938264398543 0 0)
(0.001009447354044422 0 0)
(0.001168598211099661 0 0)
(0.001322976380033595 0 0)
(0.001467199917412651 0 0)
(0.001626899658680294 0 0)
(0.001770833830240402 0 0)
(0.001899987078132477 0 0)
(0.002033221157625651 0 0)
(0.002157668258800477 0 0)
(0.002269965869790316 0 0)
(0.002350364545112106 0 0)
(0.002440525319623904 0 0)
(0.002498963548108293 0 0)
(0.00253297643396356 0 0)
(0.002550122922677382 0 0)
(0.002548913109679871 0 0)
(0.002504939708827408 0 0)
(0.002449130268690843 0 0)
(0.002366478442179833 0 0)
(0.002247999137846852 0 0)
(0.002093260854032753 0 0)
(0.001946343830650738 0 0)
(0.001788969825218898 0 0)
(0.001624968212767213 0 0)
(0.001470990073863985 0 0)
(0.001333674132732023 0 0)
(0.001165733925812166 0 0)
(0.001016575086138139 0 0)
(0.0008775034756753108 0 0)
(0.0007440337920133727 0 0)
(0.0005916747006776087 0 0)
(0.0004882899071814177 0 0)
(0.0003749141043654925 0 0)
(0.0002651993894651785 0 0)
(0.0001964248787484485 0 0)
(0.000132651622196647 0 0)
(7.870919275916548e-05 0 0)
(5.638661819538555e-05 0 0)
(8.129523973231936e-05 0 0)
(8.848012653045933e-05 0 0)
(0.0001425765743546959 0 0)
(0.0002461267760366371 0 0)
(0.0003399936780486847 0 0)
(0.0004944864983141106 0 0)
(0.0006480518984231074 0 0)
(0.000818415229860636 0 0)
(0.0009422761118049695 0 0)
(0.001129801423934274 0 0)
(0.001262726461031071 0 0)
(0.001416037456717583 0 0)
(0.001567502404776031 0 0)
(0.001716783931170956 0 0)
(0.001840775638698523 0 0)
(0.001975064510517572 0 0)
(0.002119337262376114 0 0)
(0.002201112940513175 0 0)
(0.002318019315003181 0 0)
(0.002392876568010499 0 0)
(0.002469057606770555 0 0)
(0.002499858701181707 0 0)
(0.002540802872012688 0 0)
(0.002537190985433278 0 0)
(0.002505296393526867 0 0)
(0.002477760239055102 0 0)
(0.002381273417734817 0 0)
(0.002289651619427594 0 0)
(0.002147742507309027 0 0)
(0.002004132112165679 0 0)
(0.001834111012851424 0 0)
(0.001683832744364417 0 0)
(0.001538301603101028 0 0)
(0.001380310589733999 0 0)
(0.001229403195038612 0 0)
(0.001080578298681534 0 0)
(0.0009459546497321226 0 0)
(0.0007874812113116693 0 0)
(0.0006724005654392797 0 0)
(0.0005407814355300636 0 0)
(0.0004255434591423918 0 0)
(0.0003202187703489672 0 0)
(0.0002463350532401492 0 0)
(0.0001611650316541667 0 0)
(0.0001105346834219012 0 0)
(9.033400233230337e-05 0 0)
(7.852690546899975e-05 0 0)
(9.424962988082556e-05 0 0)
(0.0001391698367943457 0 0)
(0.0002216625278546454 0 0)
(0.0003067512235773032 0 0)
(0.0004507647116573169 0 0)
(0.0006083473155432569 0 0)
(0.0007557549922962987 0 0)
(0.0009130348674787579 0 0)
(0.00106345593194077 0 0)
(0.001212576748281712 0 0)
(0.001366114366165854 0 0)
(0.001513660773373915 0 0)
(0.001655991166161783 0 0)
(0.001793282234689876 0 0)
(0.001925320896620822 0 0)
(0.002052830600358789 0 0)
(0.002166318897526299 0 0)
(0.002261718917209244 0 0)
(0.002349076023365481 0 0)
(0.002432378185486128 0 0)
(0.002482358953582851 0 0)
(0.002500565876638831 0 0)
(0.002528087497327217 0 0)
(0.00252099727270936 0 0)
(0.002469667045056933 0 0)
(0.002400847971261021 0 0)
(0.002327077987380956 0 0)
(0.002197831608529216 0 0)
(0.002034250554052874 0 0)
(0.001905443985373372 0 0)
(0.00173782670161444 0 0)
(0.001585218830612715 0 0)
(0.001442016268727935 0 0)
(0.001293484537824094 0 0)
(0.001138550167768134 0 0)
(0.0009954295362095411 0 0)
(0.0008666796600155292 0 0)
(0.0007209801527411491 0 0)
(0.0006036481643527598 0 0)
(0.0004774278460111708 0 0)
(0.0003860346824598864 0 0)
(0.0002833439800355295 0 0)
(0.0002097544988327632 0 0)
(0.000153361035354296 0 0)
(0.000115167534063116 0 0)
(0.0001007773366124656 0 0)
(9.548561914802739e-05 0 0)
(0.0001492471250484161 0 0)
(0.0001980054500796567 0 0)
(0.0002876875222617945 0 0)
(0.000401715746920146 0 0)
(0.000573529590710549 0 0)
(0.0006998017453645866 0 0)
(0.0008691633616209832 0 0)
(0.001016802877924495 0 0)
(0.001153874295158481 0 0)
(0.001318806381093079 0 0)
(0.00146111976943085 0 0)
(0.001604022744104969 0 0)
(0.001727022353009781 0 0)
(0.001896458374337032 0 0)
(0.001986601878465958 0 0)
(0.002111623177082318 0 0)
(0.002226754231312883 0 0)
(0.002315409354722588 0 0)
(0.002381466051668206 0 0)
(0.002448878252948641 0 0)
(0.002497487949274276 0 0)
(0.002495913878727217 0 0)
(0.002514516295862784 0 0)
(0.002471139127516619 0 0)
(0.002421687589975459 0 0)
(0.002341980406912273 0 0)
(0.002241710241880379 0 0)
(0.002080984805911386 0 0)
(0.001940932737910511 0 0)
(0.001801045866138132 0 0)
(0.001628310068283885 0 0)
(0.001493606873524365 0 0)
(0.00135126527751512 0 0)
(0.001194732596059411 0 0)
(0.001045113298581793 0 0)
(0.0009293931583066798 0 0)
(0.0007797575156122617 0 0)
(0.0006408999167580036 0 0)
(0.0005478092569464393 0 0)
(0.0004304342918819333 0 0)
(0.000322178324151515 0 0)
(0.0002527120790654794 0 0)
(0.0001972096642278826 0 0)
(0.0001348142633596834 0 0)
(0.0001186260454807451 0 0)
(0.0001235870196138917 0 0)
(0.0001391521460558927 0 0)
(0.0001898267265925358 0 0)
(0.000276566602360212 0 0)
(0.000368656450858449 0 0)
(0.000511253780669362 0 0)
(0.0006779829811435454 0 0)
(0.0008133656461046278 0 0)
(0.000959358188017755 0 0)
(0.001121073794811116 0 0)
(0.001257963016491385 0 0)
(0.001405753556528772 0 0)
(0.001550044094279388 0 0)
(0.001690653587842331 0 0)
(0.001813322721891319 0 0)
(0.001955456261452465 0 0)
(0.002064669700538401 0 0)
(0.002164038179929916 0 0)
(0.00227413333544614 0 0)
(0.002353434306272303 0 0)
(0.002409248860377235 0 0)
(0.002458716203109234 0 0)
(0.002502037534168995 0 0)
(0.002486308992343914 0 0)
(0.002474885138565605 0 0)
(0.002441849576169781 0 0)
(0.002362998078387036 0 0)
(0.00225966245381413 0 0)
(0.002151668788975047 0 0)
(0.001990086976972097 0 0)
(0.001832196908144437 0 0)
(0.001704324983344068 0 0)
(0.001548431092466168 0 0)
(0.001393186067385739 0 0)
(0.001253161201395893 0 0)
(0.001124294341954671 0 0)
(0.0009607655562163598 0 0)
(0.0008446816047979228 0 0)
(0.0007130704879782273 0 0)
(0.0005840641473041667 0 0)
(0.0004839770973467998 0 0)
(0.0003827027967560098 0 0)
(0.0002951190443497711 0 0)
(0.0002175601199190134 0 0)
(0.0001840894669030413 0 0)
(0.0001339724036060536 0 0)
(0.0001367110971894694 0 0)
(0.0001436823131483999 0 0)
(0.0001852330887409925 0 0)
(0.000251351805350014 0 0)
(0.0003489188826326348 0 0)
(0.0004690386111943946 0 0)
(0.0006164529996916177 0 0)
(0.000779169590610486 0 0)
(0.0009113611291118506 0 0)
(0.001063493229035845 0 0)
(0.001206409533371623 0 0)
(0.001362261144902151 0 0)
(0.001485334955927748 0 0)
(0.00163979718211709 0 0)
(0.001768282543863946 0 0)
(0.001889547852277256 0 0)
(0.00201984667565662 0 0)
(0.002126286756035749 0 0)
(0.002224199157431767 0 0)
(0.002305632398491251 0 0)
(0.002393403784862212 0 0)
(0.002422025799646028 0 0)
(0.002472570633761024 0 0)
(0.002481827761129121 0 0)
(0.002473462466264854 0 0)
(0.002438253453695044 0 0)
(0.002378776238911222 0 0)
(0.002299754830132177 0 0)
(0.002178972573442625 0 0)
(0.002044656048148772 0 0)
(0.001889340157891388 0 0)
(0.001744296339765885 0 0)
(0.001601707714565908 0 0)
(0.001459099342569374 0 0)
(0.00130777721682024 0 0)
(0.001164325773583707 0 0)
(0.001037508744716774 0 0)
(0.0008919584766810422 0 0)
(0.0007694107093453356 0 0)
(0.0006443065632328541 0 0)
(0.0005310424508573186 0 0)
(0.0004299996354167916 0 0)
(0.0003483360345872509 0 0)
(0.0002590441251464533 0 0)
(0.0002041775224716915 0 0)
(0.000178842855348666 0 0)
(0.0001455191531940046 0 0)
(0.0001564446045423906 0 0)
(0.0001869714934717038 0 0)
(0.0002445829086723745 0 0)
(0.0003183483933255432 0 0)
(0.0004320262708901541 0 0)
(0.0005864478723841189 0 0)
(0.0007169369768278014 0 0)
(0.0008771151096894985 0 0)
(0.001008037682665728 0 0)
(0.001167820874504956 0 0)
(0.001298303574825706 0 0)
(0.001446650529799124 0 0)
(0.001584349256467538 0 0)
(0.001711898146985894 0 0)
(0.001848035881534755 0 0)
(0.001962940276647976 0 0)
(0.002085279578535998 0 0)
(0.002169926388319897 0 0)
(0.002279569194060159 0 0)
(0.002336914130655328 0 0)
(0.002409204433024966 0 0)
(0.002443113429593692 0 0)
(0.002464689977476859 0 0)
(0.002466636371296799 0 0)
(0.002434882011886356 0 0)
(0.002398562924196765 0 0)
(0.002311999502856873 0 0)
(0.002227123918069041 0 0)
(0.002077463751458593 0 0)
(0.001946065990845162 0 0)
(0.001793041615940591 0 0)
(0.001651277655182469 0 0)
(0.001503477124220102 0 0)
(0.001368636626326199 0 0)
(0.001223999106455649 0 0)
(0.00107942018720052 0 0)
(0.0009565560174068066 0 0)
(0.0008197963873851103 0 0)
(0.0006990798406232552 0 0)
(0.0005773726183698363 0 0)
(0.0004862633448666653 0 0)
(0.0003820168007111401 0 0)
(0.0003068919476138392 0 0)
(0.0002434467241506507 0 0)
(0.0001988131800360456 0 0)
(0.0001731388402860932 0 0)
(0.0001647509633143042 0 0)
(0.0001945659757497723 0 0)
(0.0002280870672721553 0 0)
(0.0003110232886599529 0 0)
(0.0003993600259727245 0 0)
(0.000538613195955027 0 0)
(0.0006779644101878241 0 0)
(0.0008271536409990321 0 0)
(0.0009651730071787684 0 0)
(0.001111654604671593 0 0)
(0.001251782572037641 0 0)
(0.001392256984864388 0 0)
(0.001526799067355671 0 0)
(0.001664377492352323 0 0)
(0.001796078404270501 0 0)
(0.001904986265326024 0 0)
(0.00203089910246506 0 0)
(0.002133913708987898 0 0)
(0.002222354761612697 0 0)
(0.002304048026676987 0 0)
(0.002371458020764005 0 0)
(0.002415367251498233 0 0)
(0.002446775271599584 0 0)
(0.002453188964603112 0 0)
(0.0024333930833807 0 0)
(0.002406404876857987 0 0)
(0.00233197233990221 0 0)
(0.002245130599908907 0 0)
(0.002134761283865431 0 0)
(0.001985772835179256 0 0)
(0.001839721268091498 0 0)
(0.001698100777558509 0 0)
(0.001567734907336096 0 0)
(0.00140855766745997 0 0)
(0.001277118141850713 0 0)
(0.001145926198028504 0 0)
(0.0009995565412117969 0 0)
(0.000873116423030863 0 0)
(0.0007561797561992526 0 0)
(0.0006359760288371738 0 0)
(0.0005170028789319022 0 0)
(0.0004413506853578362 0 0)
(0.0003478574770119019 0 0)
(0.0002761977197443853 0 0)
(0.0002288109522819786 0 0)
(0.0001985796206558475 0 0)
(0.0001820316235547229 0 0)
(0.0001932443868120951 0 0)
(0.0002355755942900864 0 0)
(0.0002831959704013569 0 0)
(0.0003822177562649191 0 0)
(0.0004934572987745948 0 0)
(0.0006403123210272864 0 0)
(0.000773721976512837 0 0)
(0.0009328285062751096 0 0)
(0.001059861114478279 0 0)
(0.00119695420030709 0 0)
(0.001354655625295111 0 0)
(0.001474717825895896 0 0)
(0.001614949941565863 0 0)
(0.001736823179310817 0 0)
(0.00187634362797113 0 0)
(0.001971539240203679 0 0)
(0.002093296602243947 0 0)
(0.002185635312522305 0 0)
(0.002262924147167402 0 0)
(0.002340008991347099 0 0)
(0.002389175488988574 0 0)
(0.002426411439805559 0 0)
(0.002427589461548803 0 0)
(0.002444636492186411 0 0)
(0.002394796785940085 0 0)
(0.002353210529681279 0 0)
(0.002270257983496859 0 0)
(0.002170142027585458 0 0)
(0.002029339411884206 0 0)
(0.001891799082161127 0 0)
(0.00175143025959672 0 0)
(0.001602213906922898 0 0)
(0.001475045363273794 0 0)
(0.00132950677793536 0 0)
(0.001192952117908617 0 0)
(0.001056945373791998 0 0)
(0.0009352998850513051 0 0)
(0.0008018823484532599 0 0)
(0.0006868361639698854 0 0)
(0.0005825544826276911 0 0)
(0.0004757759831114651 0 0)
(0.0003930610771088295 0 0)
(0.0003176280165966562 0 0)
(0.0002632774771337579 0 0)
(0.0002189155712518858 0 0)
(0.0002076090877617054 0 0)
(0.0002038961572773551 0 0)
(0.0002285091646783741 0 0)
(0.0002848122960029158 0 0)
(0.0003573747070121109 0 0)
(0.0004566808498033742 0 0)
(0.0005983814016075277 0 0)
(0.000738430577375993 0 0)
(0.0008770691447805661 0 0)
(0.001014657512915781 0 0)
(0.001161874163346019 0 0)
(0.001289435002537978 0 0)
(0.001431447084351232 0 0)
(0.001565419503554411 0 0)
(0.001692187954676439 0 0)
(0.001813364785355964 0 0)
(0.001933814447731737 0 0)
(0.002045500182279931 0 0)
(0.002136180157635127 0 0)
(0.00223033611229711 0 0)
(0.002300160012795649 0 0)
(0.002362492829093682 0 0)
(0.002397937389812853 0 0)
(0.002425527388666165 0 0)
(0.002425186976341471 0 0)
(0.002403751499026034 0 0)
(0.00236144834872279 0 0)
(0.002291557655405025 0 0)
(0.002202507728291859 0 0)
(0.002077630756074629 0 0)
(0.001934201717667264 0 0)
(0.001793607705017549 0 0)
(0.001653428324869377 0 0)
(0.001510120041608403 0 0)
(0.001374886726815979 0 0)
(0.001229692322585682 0 0)
(0.001100463300800795 0 0)
(0.0009592994588102057 0 0)
(0.0008347465675265619 0 0)
(0.000706027055335598 0 0)
(0.0005872142775407743 0 0)
(0.000477798134599265 0 0)
(0.0003707485916134743 0 0)
(0.0002808820777769882 0 0)
(0.0001970898420465466 0 0)
(0.0001316146921546611 0 0)
(6.972030691834672e-05 0 0)
(3.606569752394725e-05 0 0)
(3.045169059149646e-06 0 0)
(2.314679613820047e-09 0 0)
(-2.076166798710791e-13 0 0)
(-1.43707816727706e-13 0 0)
(-1.56225123862942e-13 0 0)
(-1.504691341662045e-13 0 0)
(-1.26494599117831e-13 0 0)
(-9.102920851021472e-14 0 0)
(-1.11874696496649e-13 0 0)
(-1.05676092369136e-13 0 0)
(-4.304689512419387e-14 0 0)
(-1.087255735527872e-13 0 0)
(-9.319638986171224e-14 0 0)
(-7.662924349996227e-14 0 0)
(-6.957423222338597e-14 0 0)
(-8.173767060022339e-14 0 0)
(-6.717125211459203e-14 0 0)
(-9.010155007056673e-14 0 0)
(-5.795072784685322e-14 0 0)
(-8.893586390521359e-14 0 0)
(-7.774484920051092e-14 0 0)
(-7.453165788717907e-14 0 0)
(-8.715016751516472e-14 0 0)
(-6.639397546415931e-14 0 0)
(-8.103715896483747e-14 0 0)
(-7.896712648464851e-14 0 0)
(-8.60706495826777e-14 0 0)
(-7.680585374048192e-14 0 0)
(-9.044702212478672e-14 0 0)
(-8.621437149978061e-14 0 0)
(-8.74709087801985e-14 0 0)
(-7.66296326488883e-14 0 0)
(-9.723571180430481e-14 0 0)
(-9.686779359244764e-14 0 0)
(-1.016932610674932e-13 0 0)
(-5.243818006430372e-14 0 0)
(-1.50053525723731e-13 0 0)
(-6.334179716552288e-14 0 0)
(-1.173074248253672e-13 0 0)
(-1.043132463818403e-13 0 0)
(-6.484035272258905e-14 0 0)
(-1.187123333772509e-13 0 0)
(-1.134365085975294e-13 0 0)
(-7.33230718202041e-14 0 0)
(-1.103299888677926e-13 0 0)
(-9.83055960206423e-14 0 0)
(-1.01246795538706e-13 0 0)
(-1.057375298127939e-13 0 0)
(-9.493516455379642e-14 0 0)
(-9.26991053061976e-14 0 0)
(-1.338445506769676e-13 0 0)
(-6.531718091889244e-14 0 0)
(-1.231690373925822e-13 0 0)
(-1.273133832777266e-13 0 0)
(-9.396651222116956e-14 0 0)
(-9.613526145519086e-14 0 0)
(-1.201498605980644e-13 0 0)
(-1.198579189101035e-13 0 0)
(-1.133468314240012e-13 0 0)
(-1.156417897564999e-13 0 0)
(-8.4055181776298e-14 0 0)
(-1.558313569162554e-13 0 0)
(-1.046642434473905e-13 0 0)
(-1.167205420940176e-13 0 0)
(-1.2894655193909e-13 0 0)
(-1.103153693738305e-13 0 0)
(-1.307577901831608e-13 0 0)
(-1.316494853223494e-13 0 0)
(-1.049363014318444e-13 0 0)
(-1.443123804663681e-13 0 0)
(-1.269386434998319e-13 0 0)
(-1.115724680230675e-13 0 0)
(-1.638626237653917e-13 0 0)
(-9.491883449999056e-14 0 0)
(-1.281127048892048e-13 0 0)
(-1.405466134094815e-13 0 0)
(-1.022827156854434e-13 0 0)
(-1.722292465814146e-13 0 0)
(-8.836398502467993e-14 0 0)
(-1.434869141933851e-13 0 0)
(-1.426546987055957e-13 0 0)
(-1.2760043720219e-13 0 0)
(-1.290470047641235e-13 0 0)
(-1.386779937011115e-13 0 0)
(-1.409248868786095e-13 0 0)
(-1.234906159946462e-13 0 0)
(-1.737176270119724e-13 0 0)
(-1.351235920606419e-13 0 0)
(-1.597329388128404e-13 0 0)
(-1.294812752162116e-13 0 0)
(-1.399372288573285e-13 0 0)
(-1.415481795769183e-13 0 0)
(-1.537956377375906e-13 0 0)
(-1.655471352632414e-13 0 0)
(-8.542629923934191e-14 0 0)
(-1.858331469423944e-13 0 0)
(-1.622278250635092e-13 0 0)
(-1.337527122459266e-13 0 0)
(-1.524211493707644e-13 0 0)
(-1.539237154373257e-13 0 0)
(-1.692548102688274e-13 0 0)
(-1.124019856350362e-13 0 0)
(-1.970261529671868e-13 0 0)
(-1.210130216023443e-13 0 0)
(-1.950259793853916e-13 0 0)
(-1.5518968296859e-13 0 0)
(-1.762466480305511e-13 0 0)
(-1.56012769533397e-13 0 0)
(-1.591836000729966e-13 0 0)
(-1.915469488461627e-13 0 0)
(-1.135676478106308e-13 0 0)
(-2.253115272930792e-13 0 0)
(-1.307051746299812e-13 0 0)
(-1.893267522665485e-13 0 0)
(-1.817792102979092e-13 0 0)
(-1.644752405292039e-13 0 0)
(-1.67538459921488e-13 0 0)
(-1.887122024610657e-13 0 0)
(-1.626088035584419e-13 0 0)
(-1.90136574322169e-13 0 0)
(-1.78358827625923e-13 0 0)
(-1.358982953028411e-13 0 0)
(-2.267371369270057e-13 0 0)
(-1.722290751223046e-13 0 0)
(-1.91364099127783e-13 0 0)
(-2.015228037593982e-13 0 0)
(-1.791333146999375e-13 0 0)
(-1.872207237188924e-13 0 0)
(-1.879135666860101e-13 0 0)
(-2.173666399774629e-13 0 0)
(-1.217391006031588e-13 0 0)
(-2.638530542436102e-13 0 0)
(-1.8340842984692e-13 0 0)
(-1.815600630324714e-13 0 0)
(-2.129535393007399e-13 0 0)
(-1.882040697510984e-13 0 0)
(-2.201366704765475e-13 0 0)
(-1.660657007065121e-13 0 0)
(-2.223354609400151e-13 0 0)
(-2.163746070483654e-13 0 0)
(-1.952199739457311e-13 0 0)
(-1.847458471608818e-13 0 0)
(-2.091685273852945e-13 0 0)
(-2.241809177417184e-13 0 0)
(-1.904224949829079e-13 0 0)
(-2.039605829923885e-13 0 0)
(-1.646392815293977e-13 0 0)
(-2.660525042712913e-13 0 0)
(-1.815794331194627e-13 0 0)
(-2.075912895176803e-13 0 0)
(-2.278986618430296e-13 0 0)
(-2.118737829591713e-13 0 0)
(-1.864939333702434e-13 0 0)
(-2.130696148630453e-13 0 0)
(-2.401259588104211e-13 0 0)
(-1.585754826846187e-13 0 0)
(-2.463520961120326e-13 0 0)
(-2.263896942719731e-13 0 0)
(-2.264740147746063e-13 0 0)
(-2.088891636092458e-13 0 0)
(-2.223072794885495e-13 0 0)
(-2.295710252557543e-13 0 0)
(-2.065655524082606e-13 0 0)
(-2.364007964975843e-13 0 0)
(-2.316962102318651e-13 0 0)
(-2.34853386200841e-13 0 0)
(-2.194861198114783e-13 0 0)
(-2.418479680691073e-13 0 0)
(-2.473212165912632e-13 0 0)
(-2.219140483993149e-13 0 0)
(-2.605734140918082e-13 0 0)
(-2.014913446264447e-13 0 0)
(-2.782008805189525e-13 0 0)
(-2.250928489350502e-13 0 0)
(-2.62184034701662e-13 0 0)
(-2.414927690764901e-13 0 0)
(-2.618161740073603e-13 0 0)
(-2.300186184953868e-13 0 0)
(-2.423520072406083e-13 0 0)
(-2.682640496586956e-13 0 0)
(-1.945301917311384e-13 0 0)
(-2.971646309963716e-13 0 0)
(-2.609892060409985e-13 0 0)
(-2.55921876582015e-13 0 0)
(-2.537989412936012e-13 0 0)
(-2.519826645462368e-13 0 0)
(-2.746928797043736e-13 0 0)
(-2.363275538869276e-13 0 0)
(-2.624204930231732e-13 0 0)
(-2.710603086089976e-13 0 0)
(-2.769331514050762e-13 0 0)
(-2.560266628762461e-13 0 0)
(-2.618299896920933e-13 0 0)
(-2.739034294573608e-13 0 0)
(-2.58857247251253e-13 0 0)
(-2.766127745384011e-13 0 0)
(-2.198256753475929e-13 0 0)
(-3.313365122269521e-13 0 0)
(-2.591529155696534e-13 0 0)
(-2.665385450286703e-13 0 0)
(-2.742751675219181e-13 0 0)
(-2.799805088902322e-13 0 0)
(-2.802028939202086e-13 0 0)
(-2.715874207354384e-13 0 0)
(-2.818880442629844e-13 0 0)
(-2.23340318358264e-13 0 0)
(-3.508579567097202e-13 0 0)
(-2.529140026248404e-13 0 0)
(-2.885813004230948e-13 0 0)
(-2.949576225434153e-13 0 0)
(-2.794221880876446e-13 0 0)
(-2.968094910429545e-13 0 0)
(-2.374352893083265e-13 0 0)
(-3.309138340440851e-13 0 0)
(-2.634994973391609e-13 0 0)
(-3.117836770828406e-13 0 0)
(-2.902376895087023e-13 0 0)
(-2.925224982260086e-13 0 0)
(-3.093970645869046e-13 0 0)
(-2.863823967789125e-13 0 0)
(-3.119450322549148e-13 0 0)
(-2.574451087867559e-13 0 0)
(-3.442546592442049e-13 0 0)
(-3.135973795856946e-13 0 0)
(-2.804128661836467e-13 0 0)
(-3.134744448983151e-13 0 0)
(-3.192549739666767e-13 0 0)
(-2.970982388391707e-13 0 0)
(-2.943558339755977e-13 0 0)
(-3.162761635070953e-13 0 0)
(-2.790399104227417e-13 0 0)
(-3.340721942996201e-13 0 0)
(-2.985753675607943e-13 0 0)
(-3.134156455304603e-13 0 0)
(-3.100780147176955e-13 0 0)
(-2.936878015561771e-13 0 0)
(-3.499782015500919e-13 0 0)
(-2.547541313102847e-13 0 0)
(-3.507968462570067e-13 0 0)
(-3.014363871062079e-13 0 0)
(-3.302777592078141e-13 0 0)
(-2.510561919147323e-13 0 0)
(-3.658338542219146e-13 0 0)
(-3.21640048883559e-13 0 0)
(-2.886531306830856e-13 0 0)
(-3.216645412636506e-13 0 0)
(-3.161601604477229e-13 0 0)
(-3.2211624952181e-13 0 0)
(-2.748143606024556e-13 0 0)
(-3.503461212835783e-13 0 0)
(-3.224646164223502e-13 0 0)
(-3.212959947328973e-13 0 0)
(-3.218343656427989e-13 0 0)
(-3.063632116933731e-13 0 0)
(-3.260729711058294e-13 0 0)
(-3.123322279113026e-13 0 0)
(-3.235457707090371e-13 0 0)
(-2.69818855850507e-13 0 0)
(-3.679921139659114e-13 0 0)
(-3.198190223039566e-13 0 0)
(-3.022960982090617e-13 0 0)
(-3.231561594587192e-13 0 0)
(-3.284523424022918e-13 0 0)
(-3.098741336264727e-13 0 0)
(-3.19115616583084e-13 0 0)
(-3.182666412147759e-13 0 0)
(-2.756790647386874e-13 0 0)
(-3.632905669725622e-13 0 0)
(-2.9314042060864e-13 0 0)
(-3.269390469149222e-13 0 0)
(-3.148023960757235e-13 0 0)
(-3.039464335004104e-13 0 0)
(-3.285938815816884e-13 0 0)
(-2.828607820421637e-13 0 0)
(-3.582852898123867e-13 0 0)
(-2.825298194199114e-13 0 0)
(-3.412534305725295e-13 0 0)
(-3.180501120666607e-13 0 0)
(-3.054029664099039e-13 0 0)
(-3.257924588996311e-13 0 0)
(-3.05709653581045e-13 0 0)
(-3.207675149648973e-13 0 0)
(-2.705841366771691e-13 0 0)
(-3.608658641016613e-13 0 0)
(-2.994023075521533e-13 0 0)
(-3.246173010447937e-13 0 0)
(-3.167565451720704e-13 0 0)
(-3.03134303478724e-13 0 0)
(-3.241445088692991e-13 0 0)
(-3.073520172029318e-13 0 0)
(-3.440508968866565e-13 0 0)
(-2.55882547749611e-13 0 0)
(-3.496493282622368e-13 0 0)
(-3.146688834681521e-13 0 0)
(-3.254928732939592e-13 0 0)
(-3.143262217096794e-13 0 0)
(-2.960999749227581e-13 0 0)
(-3.289216774206763e-13 0 0)
(-2.829227601353579e-13 0 0)
(-3.360812979795056e-13 0 0)
(-3.314836592655648e-13 0 0)
(-3.127679225806804e-13 0 0)
(-3.139589998602553e-13 0 0)
)
;

boundaryField
{
    inlet
    {
        type            calculated;
        value           uniform (-3.358008037852401e-05 0 0);
    }
    outlet
    {
        type            calculated;
        value           uniform (-3.139589998602553e-13 0 0);
    }
    frontAndBack
    {
        type            empty;
    }
}


// ************************************************************************* //
