/*--------------------------------*- C++ -*----------------------------------*\
| =========                 |                                                 |
| \\      /  F ield         | OpenFOAM: The Open Source CFD Toolbox           |
|  \\    /   O peration     | Version:  v2012                                 |
|   \\  /    A nd           | Website:  www.openfoam.com                      |
|    \\/     M anipulation  |                                                 |
\*---------------------------------------------------------------------------*/
FoamFile
{
    version     2.0;
    format      ascii;
    class       volVectorField;
    location    "0.003";
    object      U;
}
// * * * * * * * * * * * * * * * * * * * * * * * * * * * * * * * * * * * * * //

dimensions      [0 1 -1 0 0 0 0];


internalField   nonuniform List<vector> 
100
(
(-2.64933e-13 0 0)
(-3.89875e-13 0 0)
(-3.99598e-13 0 0)
(-1.51861e-13 0 0)
(-6.48939e-14 0 0)
(-6.53475e-14 0 0)
(-6.11184e-14 0 0)
(-3.25592e-14 0 0)
(4.0415e-14 0 0)
(2.11062e-14 0 0)
(-1.85542e-14 0 0)
(-3.12157e-14 0 0)
(1.172e-14 0 0)
(1.01423e-13 0 0)
(1.34921e-13 0 0)
(1.87137e-13 0 0)
(1.50679e-13 0 0)
(1.95305e-13 0 0)
(2.2284e-13 0 0)
(9.38492e-14 0 0)
(-1.18851e-13 0 0)
(-2.23851e-13 0 0)
(-2.71814e-13 0 0)
(-1.84057e-13 0 0)
(-1.06003e-14 0 0)
(6.83221e-14 0 0)
(5.92518e-14 0 0)
(6.87881e-14 0 0)
(3.36135e-14 0 0)
(-3.50707e-14 0 0)
(-6.53146e-15 0 0)
(8.01461e-15 0 0)
(2.91121e-11 0 0)
(3.13904e-07 0 0)
(0.000297158 0 0)
(0.0352085 0 0)
(0.7924 0 0)
(5.34863 0 0)
(16.7584 0 0)
(33.9947 0 0)
(54.5421 0 0)
(76.8065 0 0)
(100.046 0 0)
(123.928 0 0)
(148.308 0 0)
(173.151 0 0)
(198.44 0 0)
(224.159 0 0)
(249.917 0 0)
(274.274 0 0)
(292.521 0 0)
(298.571 0 0)
(291.997 0 0)
(292.643 0 0)
(293.212 0 0)
(293.384 0 0)
(293.475 0 0)
(293.601 0 0)
(294.117 0 0)
(294.7 0 0)
(291.515 0 0)
(292.8 0 0)
(296.459 0 0)
(297.788 0 0)
(296.095 0 0)
(281.317 0 0)
(211.262 0 0)
(63.0615 0 0)
(2.26364 0 0)
(0.00561358 0 0)
(6.36598e-07 0 0)
(1.43433e-11 0 0)
(3.38597e-14 0 0)
(4.49788e-14 0 0)
(4.50146e-14 0 0)
(3.64986e-15 0 0)
(-6.55244e-14 0 0)
(2.06412e-14 0 0)
(1.03297e-13 0 0)
(1.09197e-13 0 0)
(2.02849e-14 0 0)
(-7.21836e-14 0 0)
(9.55423e-15 0 0)
(5.70135e-14 0 0)
(-5.41241e-15 0 0)
(-8.49552e-14 0 0)
(-1.39478e-13 0 0)
(-1.162e-13 0 0)
(-1.83506e-13 0 0)
(-2.56722e-13 0 0)
(-1.82243e-13 0 0)
(-1.33941e-13 0 0)
(-1.63049e-13 0 0)
(-1.40148e-13 0 0)
(-1.54185e-13 0 0)
(-2.28114e-13 0 0)
(-2.02824e-13 0 0)
(-3.37975e-14 0 0)
(6.87828e-14 0 0)
(3.71387e-14 0 0)
)
;

boundaryField
{
    sides
    {
        type            zeroGradient;
    }
    empty
    {
        type            empty;
    }
}


// ************************************************************************* //
