/*--------------------------------*- C++ -*----------------------------------*\
| =========                 |                                                 |
| \\      /  F ield         | OpenFOAM: The Open Source CFD Toolbox           |
|  \\    /   O peration     | Version:  v2012                                 |
|   \\  /    A nd           | Website:  www.openfoam.com                      |
|    \\/     M anipulation  |                                                 |
\*---------------------------------------------------------------------------*/
FoamFile
{
    version     2.0;
    format      ascii;
    class       volScalarField;
    location    "0.005";
    object      p;
}
// * * * * * * * * * * * * * * * * * * * * * * * * * * * * * * * * * * * * * //

dimensions      [1 -1 -2 0 0 0 0];


internalField   nonuniform List<scalar> 
1000
(
101303.8255904368
101309.4273016873
101304.5959686854
101294.6708718486
101292.1428568653
101286.4525464061
101281.8948357926
101281.6062571459
101276.5416463836
101276.2091700877
101276.4809576863
101276.446780409
101277.7363532866
101279.5075972841
101280.9107224045
101286.1402577601
101289.507137975
101294.7844270825
101301.3401784743
101306.315090109
101313.0938321877
101319.5846697508
101326.197980422
101333.0092173727
101339.3461569455
101345.9024375511
101351.7061937288
101357.1122985843
101362.2257865146
101366.3595441539
101371.8675690754
101372.8105570392
101372.9218050083
101372.7485969841
101372.4657361428
101371.4933796621
101370.4206813528
101368.3303831418
101365.3253189113
101361.6023821043
101356.8874699061
101351.3081817829
101345.1508783733
101338.6348608575
101331.7976057076
101325.1312275438
101318.4129270471
101311.8733354094
101305.548625507
101299.4109314966
101293.6845554082
101288.4671776572
101283.061925534
101278.003766923
101277.632943249
101277.7625754537
101277.8113619817
101278.1490470308
101279.4847141539
101279.7613890261
101282.2182082665
101285.2544603994
101286.8392041919
101292.6910963975
101297.2638190945
101302.1545582155
101310.006752413
101315.8250687566
101323.0722700955
101330.276967728
101336.6143895709
101343.39491993
101349.4027386578
101355.2039104254
101360.5901553177
101366.6043315277
101371.6771286089
101371.8525257185
101371.8208508604
101371.8750959312
101370.999356764
101370.8980150486
101369.4770692586
101367.3835502569
101366.2910304136
101362.1233221061
101358.6987225812
101354.7708874282
101348.1617288304
101343.0601190735
101336.0770164804
101328.8289017176
101322.1042162711
101314.6031115513
101307.8769111144
101301.3140752213
101295.0359037766
101289.670139899
101282.6540704595
101278.7186329758
101278.6247228731
101278.7053815347
101278.8698208011
101278.9093185762
101280.186672157
101280.8434631638
101281.8484138041
101285.2357748395
101286.8967671215
101290.7322191481
101295.6819158533
101299.654374899
101306.192957278
101312.3640263012
101318.8346314607
101326.3405837544
101333.2738669834
101340.4376903671
101347.2811737224
101353.7469747878
101359.5003020221
101366.6112486143
101370.8950213241
101371.0048780889
101370.8834997016
101370.8545973438
101370.4603143803
101369.7816579192
101369.1947925255
101367.1796377853
101365.6723906107
101363.519473503
101359.0702948424
101356.4827378294
101351.3578271989
101344.958567338
101340.2819000513
101332.6641782194
101325.65938993
101318.8493984952
101310.9338841146
101304.1181245558
101297.0762664397
101290.7527888179
101282.6801983435
101279.3264738788
101279.2618781543
101279.3829878794
101279.4904546271
101279.7318989652
101280.6523206051
101281.0936405931
101282.7333092578
101284.7616291516
101286.5544052276
101290.4061475397
101293.7846425343
101298.0067534474
101303.822631858
101308.9990072744
101315.5896587251
101322.6596122847
101329.3454885364
101337.005767501
101344.1490406469
101351.2057532696
101357.9043203212
101366.3605353443
101370.2507089879
101370.2448976723
101370.288652637
101370.2004434368
101369.6429724503
101369.5493913818
101368.3728083084
101367.0476215008
101366.1625918618
101362.8466527896
101360.7216451134
101357.4240322297
101352.3288698748
101348.4511725795
101342.2375670757
101335.9898336252
101329.6737387464
101321.9737970997
101314.8690661835
101307.2943845307
101299.6136111537
101292.9554222448
101283.3475760164
101279.9305155162
101279.9199558038
101279.7683299985
101280.1350187393
101280.3814607245
101280.6733708821
101282.0629153803
101282.7008025157
101284.5540698875
101287.1391731684
101288.9061019427
101293.1852654202
101296.8508602907
101300.9380439271
101307.4356955087
101312.4477281247
101319.0502794793
101326.5024642121
101333.0805095549
101340.8433129908
101348.3263300125
101355.0918006634
101364.136220986
101369.7415474418
101369.8838420769
101369.8092563199
101369.8239530665
101369.3173452451
101368.9574927622
101368.3644565579
101366.786046011
101365.8221922393
101363.5633474478
101360.897321666
101358.2382842156
101353.8975529344
101349.814842884
101344.6179401384
101338.6522258433
101332.5887282271
101325.3760502015
101318.2649818771
101310.6419921323
101302.6658615393
101295.5840094405
101285.4389893888
101280.60576291
101280.4882542737
101280.3748089557
101280.7185407746
101280.8495196157
101281.2865444158
101282.33001118
101282.9533257564
101284.7974300925
101286.6846175955
101288.735519915
101292.3679607649
101295.4699176623
101299.9189990286
101305.0299258979
101310.1041650507
101316.6841552487
101323.0355402757
101330.0978571217
101337.7249469449
101345.0496809739
101352.6427245057
101361.4183777053
101368.8571834393
101369.2265761309
101369.2233849107
101369.096229655
101368.9367386547
101368.5139841878
101367.7812764735
101366.9537484902
101365.5753293937
101363.6706821243
101361.5969161084
101358.5149679766
101355.1662894391
101351.0462767565
101346.3180288698
101340.9504855463
101334.8866281112
101328.4407064404
101321.2470130781
101313.7958851034
101305.9990832788
101298.3274902466
101289.0334467969
101281.4284026929
101281.0740446893
101281.0333261127
101281.1801687849
101281.4471342321
101281.5287554132
101282.6467049009
101283.3636828001
101284.5166968008
101286.7640678016
101288.4035040401
101291.5404789352
101294.7038429672
101298.452110077
101303.3954235011
101307.9970255047
101314.2539274422
101320.3837124773
101326.9225782134
101334.6697904406
101341.7003197384
101349.4896633843
101357.2672398371
101366.7635289994
101368.8277215289
101368.8201759861
101368.7384210996
101368.5292815522
101367.9106330284
101367.8185798439
101366.8512316458
101365.1428554707
101364.2844876996
101361.8199152875
101359.0312384825
101356.5820947374
101352.1494004116
101348.0065045753
101343.2681652502
101336.9715330495
101331.2662866983
101324.1827645223
101316.7137810315
101309.4150185254
101301.1375570804
101293.2325402086
101282.9358219393
101281.6585814908
101281.6834500497
101281.6467918708
101281.8819289893
101282.1263015013
101282.7245980087
101283.5262735214
101284.721263802
101286.3836213998
101288.2410696769
101290.9845609194
101293.9218808514
101297.4773503034
101301.9456801856
101306.4663902482
101312.013372877
101317.9934538794
101324.33935663
101331.4633804676
101338.6520854024
101346.4349804528
101353.6622057109
101363.7215570237
101368.1213732483
101368.1331811525
101368.1320868903
101368.0659246904
101367.4226601078
101367.370674388
101366.518904331
101365.0164678025
101364.3780217284
101361.9531014953
101359.603801429
101357.3177081786
101353.0450038708
101349.5758008101
101344.7920240821
101339.139529221
101333.7004062844
101326.8143972924
101319.8592254718
101312.5150971337
101304.3646053493
101297.0919362158
101286.2474845709
101282.1301754344
101282.0867247588
101282.1503290622
101282.2891919703
101282.4375877878
101283.0627025298
101283.683489334
101284.797997231
101286.3039270945
101287.9394117881
101290.5150097484
101293.1692395034
101296.5729342817
101300.6302480412
101304.9863927037
101310.2857143261
101315.8036143123
101322.0882542833
101328.8092576486
101335.8151644663
101343.4387058269
101350.6607362223
101359.5715941382
101367.1756923279
101367.5728566528
101367.5677286694
101367.3729108499
101367.3500019133
101366.761933735
101366.0806073698
101365.5795615474
101363.6499466839
101362.4789391232
101360.4993657594
101357.0126957764
101354.8147870365
101350.4458077842
101345.8644182175
101341.6215031648
101335.1253166522
101329.3926811536
101322.7685404159
101315.0174138329
101307.8954812711
101300.0856523795
101291.007348573
101283.0505644754
101282.637845163
101282.6644185493
101282.7248100428
101282.9938080007
101283.3150031533
101284.039452035
101284.9929927178
101286.0713463786
101288.0657553264
101289.8946579265
101292.5859845076
101295.8184366316
101299.2355744942
101303.6294137244
101308.4348070613
101313.6487510845
101319.7509310274
101326.0865647215
101332.8753787654
101340.2598099869
101347.6510315789
101354.9448268213
101365.0543020175
101367.0888198168
101367.0747967809
101367.0454931583
101366.7819615916
101366.7446106354
101365.7994167065
101365.0562726245
101364.4347942811
101362.0914721516
101360.7372320709
101358.3906374252
101354.8167442784
101352.0356295013
101347.4599808731
101342.7776297166
101337.7927549331
101331.4303140866
101325.3410766769
101318.190798351
101310.769452849
101303.2064403546
101295.4317436637
101285.0655848197
101283.2049392992
101283.2678385185
101283.1691162726
101283.4277638333
101283.7740848426
101284.1298713909
101285.0780819773
101286.4046558376
101287.1958847643
101289.7863317281
101292.1196487362
101294.4784975811
101298.6336567772
101302.1950405094
101306.7314599643
101312.0966712578
101317.410313581
101323.7301657565
101330.326481783
101337.2038415847
101344.6951115715
101351.6411073089
101361.1007760029
101366.4438228112
101366.5695598078
101366.4632873999
101366.4617457094
101366.1222993854
101365.5147382663
101365.3370374753
101363.7950727772
101362.521970945
101361.3597682862
101358.1517476812
101356.1908914428
101352.9107158928
101348.3346275481
101344.8444189911
101339.2449553477
101333.6123754674
101327.9146610601
101320.6511564543
101313.8667510388
101306.2431105813
101298.888845053
101288.9597636211
101283.8418659397
101283.7157051461
101283.5975308423
101283.9470562344
101284.0623146546
101284.3921079338
101285.5253700797
101285.9910148155
101287.5169557694
101289.6265559309
101291.1520202944
101294.4122513644
101297.4908696056
101300.8056465541
101305.7566342727
101310.1534035167
101315.4385926132
101321.6911085848
101327.6537052233
101334.607195371
101341.6760331623
101348.7318714992
101356.613729211
101365.2278160852
101365.984344071
101366.0420422004
101365.9131680388
101365.7518358512
101365.4190212259
101364.6808403598
101363.9531813859
101362.7378314503
101360.9477820131
101359.2804850183
101356.3923704279
101353.5303229978
101350.0249154251
101345.581221801
101341.1894629505
101335.6541431517
101329.7839907333
101323.5708177741
101316.4349837569
101309.2905366105
101301.9651457424
101293.6840996731
101284.9761646551
101284.3199538035
101284.3637022911
101284.3577537088
101284.539991194
101285.1076398595
101285.3091893841
101286.5408701893
101287.7574067208
101288.7289614832
101291.6137325491
101293.3861030944
101296.2837258627
101300.4521108859
101303.5995339238
101308.6344713312
101313.7645342956
101318.948328137
101325.5046969341
101331.761904274
101338.6144376197
101346.021032643
101352.75132602
101362.43298907
101365.4938980311
101365.5410581501
101365.4592773643
101365.2927944528
101365.1201971012
101364.4383375054
101363.7924624174
101362.8132823749
101361.267973975
101359.290086311
101357.3032543524
101354.2054274984
101350.8861705364
101347.2073282643
101342.4466743103
101337.6331073101
101331.9408873068
101325.816530751
101319.2342178959
101312.1514704916
101304.8315758965
101297.6066392725
101287.6245189903
101284.758085511
101284.7656049766
101284.6831133975
101285.0899194034
101285.0233351745
101285.821442264
101286.504580769
101287.3997233438
101289.0889944753
101290.812097915
101293.0001655541
101295.9784414773
101299.0090532552
101302.9055290762
101307.2115078287
101311.9144040617
101317.4059110426
101323.1017984325
101329.3770059163
101336.071346539
101342.939688125
101349.7239881449
101358.2359294388
101364.7446429171
101364.9790618734
101364.9701419706
101364.8050883429
101364.7179565157
101364.2014148787
101363.5328245105
101362.7048946634
101361.2398806574
101359.7441534963
101357.5591762876
101354.9668126187
101351.9591124943
101348.2262219997
101344.0984358601
101339.2934356506
101334.0102359286
101328.0730583571
101321.7555568717
101314.9560500436
101307.6925170639
101300.831028004
101291.7138601839
101285.4396566432
101285.2485453141
101285.3163281438
101285.3840403714
101285.5702658616
101286.0327677405
101286.7239818263
101287.55480774
101289.0022939564
101290.4957637314
101292.656028983
101295.1900448706
101298.1383710211
101301.7218381918
101305.7202916753
101310.3047148434
101315.3090773731
101321.0111750844
101326.9030593104
101333.3934130298
101340.1821659657
101347.0749536705
101353.9947063843
101363.3056506109
101365.0259647854
101365.0778289194
101365.0637165951
101364.8638368749
101364.5844857892
101364.3414169358
101363.3751468829
101362.780244018
101361.5668932017
101359.74105859
101358.3770268447
101355.652976598
101353.1984978419
101350.3983886537
101346.5351208978
101343.2623912117
101339.1565519268
101334.9046601595
101330.6703834175
101325.4789674382
101325.0003640974
101324.9999999964
101324.9999999959
101324.9999999962
101324.9999999964
101324.9999999971
101324.9999999974
101324.9999999977
101324.9999999986
101324.9999999983
101324.9999999994
101324.9999999997
101324.9999999998
101325
101325
101325.0000000001
101325.0000000001
101325.0000000002
101325
101325.0000000002
101325.0000000001
101325.0000000001
101325.0000000002
101325.0000000002
101325.0000000002
101324.9999999999
101325.0000000003
101325
101325.0000000002
101325.0000000002
101325.0000000001
101325.0000000001
101325.0000000001
101325.0000000002
101325
101325.0000000003
101325.0000000002
101325.0000000001
101325.0000000003
101325.0000000001
101325.0000000002
101325.0000000001
101325.0000000002
101325.0000000002
101325.0000000003
101325
101325.0000000003
101325.0000000002
101325.0000000002
101325.0000000001
101325.0000000003
101325.0000000003
101325.0000000003
101325.0000000002
101325.0000000002
101325.0000000003
101325.0000000004
101325.0000000001
101325.0000000003
101325.0000000004
101325.0000000002
101325.0000000002
101325.0000000002
101325.0000000003
101325.0000000003
101325.0000000005
101325.0000000002
101325.0000000004
101325.0000000003
101325.0000000005
101325.0000000003
101325.0000000004
101325.0000000003
101325.0000000005
101325.0000000003
101325.0000000005
101325.0000000004
101325.0000000003
101325.0000000005
101325.0000000003
101325.0000000005
101325.0000000004
101325.0000000005
101325.0000000004
101325.0000000004
101325.0000000004
101325.0000000004
101325.0000000003
101325.0000000004
101325.0000000004
101325.0000000005
101325.0000000003
101325.0000000004
101325.0000000004
101325.0000000002
101325.0000000004
101325.0000000003
101325.0000000003
101325.0000000004
101325.0000000004
101325.0000000003
101325.0000000004
101325.0000000003
101325.0000000004
101325.0000000004
101325.0000000003
101325.0000000002
101325.0000000003
101325.0000000003
101325.0000000004
101325.0000000003
101325.0000000004
101325.0000000002
101325.0000000004
101325.0000000003
101325.0000000003
101325.0000000004
101325.0000000003
101325.0000000004
101325.0000000003
101325.0000000004
101325.0000000004
101325.0000000003
101325.0000000005
101325.0000000002
101325.0000000007
101325.0000000002
101325.0000000005
101325.0000000004
101325.0000000005
101325.0000000004
101325.0000000005
101325.0000000006
101325.0000000003
101325.0000000004
101325.0000000006
101325.0000000004
101325.0000000005
101325.0000000006
101325.0000000005
101325.0000000005
101325.0000000005
101325.0000000006
101325.0000000005
101325.0000000006
101325.0000000006
101325.0000000006
101325.0000000005
101325.0000000005
101325.0000000005
101325.0000000006
101325.0000000005
101325.0000000006
101325.0000000006
101325.0000000005
101325.0000000007
101325.0000000007
101325.0000000006
101325.0000000006
101325.0000000007
101325.0000000006
101325.0000000006
101325.0000000006
101325.0000000005
101325.0000000008
101325.0000000005
101325.0000000007
101325.0000000007
101325.0000000004
101325.0000000008
101325.0000000005
101325.0000000007
101325.0000000004
101325.0000000007
101325.0000000006
101325.0000000005
101325.0000000005
101325.0000000007
101325.0000000005
101325.0000000005
101325.0000000006
101325.0000000004
101325.0000000005
101325.0000000005
101325.0000000004
101325.0000000005
101325.0000000005
101325.0000000005
101325.0000000003
101325.0000000007
101325.0000000004
101325.0000000004
101325.0000000005
101325.0000000004
101325.0000000004
101325.0000000004
101325.0000000006
101325.0000000004
101325.0000000004
101325.0000000003
101325.0000000006
101325.0000000004
101325.0000000005
101325.0000000004
101325.0000000004
101325.0000000006
101325.0000000003
101325.0000000005
101325.0000000004
101325.0000000003
101325.0000000004
101325.0000000004
101325.0000000005
101325.0000000001
101325.0000000005
101325.0000000002
101325.0000000005
101325.0000000002
101325.0000000005
101325.0000000003
101325.0000000004
101325.0000000004
101325.0000000004
101325.0000000003
101325.0000000003
101325.0000000002
101325.0000000004
101325.0000000002
101325.0000000003
101325.0000000002
101325.0000000003
101325.0000000001
101325.0000000002
101325.0000000002
101325.0000000003
101325.0000000001
101325.0000000003
101325.0000000003
101325.0000000001
101325.0000000002
101325.0000000002
101325.0000000003
101325.0000000002
101325.0000000002
101325.0000000002
101325.0000000002
101325.0000000001
101325.0000000003
101325.0000000001
101325.0000000004
101325
101325.0000000004
101325.0000000002
101325.0000000002
101325.0000000002
101325.0000000001
101325.0000000003
101325.0000000002
101325.0000000002
101325.0000000003
101325.0000000002
101325.0000000002
101325
101325.0000000002
101325.0000000001
101325.0000000001
101325.0000000001
101325.0000000001
101325.0000000002
101325
101325.0000000001
101325
101325.0000000002
101325.0000000001
101325.0000000001
101325.0000000001
101325.0000000001
101325
101325.0000000002
101325.0000000001
101325.0000000001
101325.0000000002
101325.0000000001
101325.0000000001
101325.0000000001
101325.0000000002
101325
101325.0000000002
101325
101325.0000000002
101325.0000000001
101325.0000000002
101325
101325.0000000001
101325.0000000001
101325.0000000002
101325.0000000001
101325.0000000001
101325.0000000002
101325.0000000001
101325.0000000002
101325.0000000001
)
;

boundaryField
{
    inlet
    {
        type            uniformFixedValue;
        uniformValue    sine;
        uniformValueCoeffs
        {
            frequency       constant 3000;
            scale           constant 50;
            level           constant 101325;
        }
        value           uniform 101312.8819131453;
    }
    outlet
    {
        type            waveTransmissive;
        gamma           1.4;
        fieldInf        101325;
        lInf            2.25;
        value           uniform 101325.0000000001;
    }
    frontAndBack
    {
        type            empty;
    }
}


// ************************************************************************* //
