/*--------------------------------*- C++ -*----------------------------------*\
| =========                 |                                                 |
| \\      /  F ield         | OpenFOAM: The Open Source CFD Toolbox           |
|  \\    /   O peration     | Version:  v2012                                 |
|   \\  /    A nd           | Website:  www.openfoam.com                      |
|    \\/     M anipulation  |                                                 |
\*---------------------------------------------------------------------------*/
FoamFile
{
    version     2.0;
    format      ascii;
    class       volScalarField;
    location    "0.005";
    object      pMean;
}
// * * * * * * * * * * * * * * * * * * * * * * * * * * * * * * * * * * * * * //

dimensions      [1 -1 -2 0 0 0 0];


internalField   nonuniform List<scalar> 
1000
(
101325.0472603059
101325.0271353588
101325.0248769545
101325.074762447
101325.1020141687
101325.1447403408
101325.204639204
101325.266006541
101325.3105617952
101325.397541925
101325.4618320024
101325.5236407792
101325.598594805
101325.6793993331
101325.7289833408
101325.7928031574
101325.8688455867
101325.909501017
101325.9545507251
101325.9982026935
101326.0293231762
101326.0474953824
101326.0487635749
101326.0699358076
101326.0576706041
101326.0326884835
101325.9984172339
101325.9869707464
101325.9394773444
101325.8587086861
101325.8294132478
101325.7777670542
101325.6774682852
101325.601414915
101325.5788361922
101325.4828948612
101325.3991541247
101325.3543430588
101325.3003715784
101325.2211191052
101325.1599019648
101325.1347523461
101325.083310571
101325.0464030864
101325.0198874401
101325.0188765558
101325.0102182246
101325.0038084313
101325.0312916782
101325.055107325
101325.0832667233
101325.1261368917
101325.1824138627
101325.2274996361
101325.3008906235
101325.374095071
101325.433226949
101325.5030846049
101325.5747567778
101325.6384209045
101325.7045943618
101325.7675786457
101325.8213914329
101325.8834146433
101325.9359882149
101325.9697738839
101326.0101728264
101326.0370742846
101326.0556429391
101326.0594031154
101326.0554287985
101326.0421459855
101326.026498871
101325.9871357361
101325.9455296735
101325.9077826171
101325.8455844931
101325.7732366632
101325.7166144327
101325.6485442025
101325.5650531694
101325.5164037379
101325.4508698353
101325.3708587234
101325.3157296953
101325.2642413126
101325.199258753
101325.1448132676
101325.1098804537
101325.067886916
101325.0392846717
101325.0166767844
101325.0120683522
101325.0091463991
101325.0212288601
101325.0383357287
101325.0725851191
101325.1129722637
101325.1583251142
101325.2128526644
101325.2819762899
101325.3512986567
101325.4151925983
101325.4787701772
101325.5493961605
101325.6162827624
101325.6743157991
101325.739898685
101325.8016621035
101325.8542896393
101325.9045324464
101325.9546862978
101325.9920964542
101326.0120129914
101326.0485588713
101326.0606322808
101326.047424156
101326.0551279573
101326.040071094
101325.9925929949
101325.966292066
101325.931177417
101325.8565739022
101325.7944262559
101325.7435883687
101325.6632482318
101325.5947416787
101325.5413855244
101325.4718484046
101325.397109371
101325.3544523755
101325.283959946
101325.2211596505
101325.1821363356
101325.1336054063
101325.0820494972
101325.0576807712
101325.0397737641
101325.0091161528
101325.0121159422
101325.0193500682
101325.032201743
101325.052152964
101325.0996038342
101325.139257937
101325.1928860201
101325.2664391604
101325.3213257304
101325.3984481895
101325.4609251555
101325.5176404653
101325.5898479739
101325.6624159415
101325.7040307454
101325.7677685423
101325.8494868084
101325.8688276211
101325.9224228682
101325.9847334596
101326.0003678032
101326.0175164758
101326.0590740866
101326.0600198169
101326.0352621216
101326.0501486527
101326.0231624483
101325.9702161113
101325.9374621209
101325.9017105816
101325.8066988529
101325.752331583
101325.6983696111
101325.6184188048
101325.5563002195
101325.5024953061
101325.4297198279
101325.364319087
101325.3230274758
101325.2494225066
101325.196782253
101325.1643139664
101325.1080229522
101325.0669662628
101325.0570503884
101325.0285121938
101325.0021917144
101325.0299898024
101325.0272942418
101325.0378462537
101325.0871304
101325.1283471849
101325.165315103
101325.2470870098
101325.3128357254
101325.3642060959
101325.4379667928
101325.5070578621
101325.5616490323
101325.6227321317
101325.7002745072
101325.742165537
101325.8027587003
101325.8624657504
101325.9047175419
101325.9468778108
101325.9868500945
101326.0152094273
101326.0333104819
101326.0518591485
101326.0462493825
101326.047564356
101326.0208541316
101325.99533986
101325.9566118035
101325.9071120681
101325.837072935
101325.7784858272
101325.7151606924
101325.6429755781
101325.5853346077
101325.523552568
101325.4541920987
101325.3953937636
101325.341926755
101325.276680844
101325.2256717447
101325.1820683223
101325.1317956677
101325.0936389504
101325.0677952517
101325.0414608814
101325.020602477
101325.0279078294
101325.0282579872
101325.0403684305
101325.0709783419
101325.1126574125
101325.1587449857
101325.2227598524
101325.2888876964
101325.3527839138
101325.4154584639
101325.4804678605
101325.5435262851
101325.6024244281
101325.6676657965
101325.7264545568
101325.7792060933
101325.8336253958
101325.884468094
101325.9303270102
101325.9631738343
101326.0000055696
101326.0238710782
101326.0377658018
101326.044775197
101326.0442705491
101326.0263137979
101326.0035049935
101325.9697359271
101325.9213238854
101325.8580930545
101325.7980626724
101325.7337522805
101325.6667386693
101325.6038266648
101325.5477053463
101325.4790840513
101325.4181432434
101325.3613065663
101325.3067705367
101325.2445176212
101325.2022762449
101325.1559443847
101325.111115722
101325.0830201519
101325.0569557336
101325.0349228331
101325.0257971799
101325.0359762281
101325.0389028649
101325.0610090876
101325.1033001324
101325.141652665
101325.2047445417
101325.2674776018
101325.3370607396
101325.387651482
101325.464247406
101325.5185440827
101325.5811567049
101325.6430342098
101325.7040077771
101325.7546441336
101325.8095102436
101325.8684310731
101325.9018340836
101325.9495929891
101325.9801746398
101326.0112767542
101326.0238768363
101326.0405969669
101326.0391132648
101326.0260910504
101326.014836675
101325.975405462
101325.9379839059
101325.8799910407
101325.8213029968
101325.751836351
101325.6904288207
101325.6309546209
101325.566403941
101325.5047350395
101325.4439270899
101325.3889097615
101325.3241678355
101325.2771328872
101325.2233571818
101325.1762745294
101325.133231009
101325.1030420378
101325.0682506853
101325.0475593008
101325.0392995453
101325.0344896433
101325.0409026974
101325.0592465709
101325.0929567131
101325.1277050044
101325.1865251475
101325.2509007066
101325.3111096529
101325.3753470075
101325.4367867595
101325.4976988291
101325.5604141406
101325.6206763552
101325.678814364
101325.7348976254
101325.7888213529
101325.8409156062
101325.8872614725
101325.926240907
101325.961918331
101325.9959494268
101326.0163644678
101326.0238020046
101326.035043574
101326.0321461354
101326.0111839135
101325.9830384348
101325.9529243413
101325.9001037512
101325.8332628677
101325.7806273725
101325.7121364271
101325.6497837807
101325.591258255
101325.5305708822
101325.4672595647
101325.4087784835
101325.3561670366
101325.2966398338
101325.2486929303
101325.1971152484
101325.1597792535
101325.1178137
101325.0877580682
101325.0647068977
101325.0490968362
101325.0432297217
101325.0410565156
101325.063021716
101325.0829439847
101325.1195730622
101325.1661444043
101325.2363380601
101325.2879125224
101325.357061104
101325.4174098204
101325.4733732606
101325.5407442286
101325.5988753335
101325.6572408947
101325.7074875129
101325.7766954639
101325.8135124014
101325.86458436
101325.91161262
101325.9478203305
101325.9748113213
101326.0023443453
101326.0222086018
101326.021553845
101326.0291605313
101326.0114395025
101325.9912265845
101325.9586650376
101325.9176956786
101325.8520201047
101325.7947861311
101325.7376345138
101325.6670517175
101325.6119966155
101325.5538488916
101325.4898841422
101325.4287420765
101325.3814605664
101325.3203172601
101325.2635813934
101325.2255381694
101325.1775849789
101325.133350201
101325.1049672003
101325.082287292
101325.0568007274
101325.0501783696
101325.0522090993
101325.0585646875
101325.0792690406
101325.1146958841
101325.1523165682
101325.2105617678
101325.2786650609
101325.3339618941
101325.3935933186
101325.4596503699
101325.5155642348
101325.5759269284
101325.6348678184
101325.6923046322
101325.7424037402
101325.8004657852
101325.8450769332
101325.8856655256
101325.9306350989
101325.9630334493
101325.9858314169
101326.006038262
101326.0237339197
101326.0173131687
101326.0126384388
101325.9991443724
101325.9669295106
101325.9247049948
101325.8805763117
101325.8145544559
101325.7500353238
101325.6977858752
101325.6340861643
101325.5706504148
101325.5134332889
101325.4607776838
101325.3939567811
101325.3465251913
101325.2927475261
101325.2400336614
101325.1991394204
101325.157760685
101325.1219742104
101325.0902827464
101325.0766112063
101325.0561322983
101325.0572513198
101325.0600979535
101325.0770752061
101325.1040790435
101325.1439380289
101325.193003593
101325.2532131861
101325.3196805002
101325.3736727247
101325.4358156632
101325.4941898924
101325.5578504499
101325.6081198669
101325.6712158591
101325.7236951551
101325.7732279095
101325.8264555896
101325.8699297018
101325.9099280011
101325.9431922066
101325.9790461834
101325.9907372208
101326.0113869123
101326.0151676707
101326.0117475843
101325.9973669025
101325.9730610743
101325.9407777452
101325.8914249869
101325.8365421123
101325.7730772805
101325.7138089631
101325.6555475834
101325.597274732
101325.5354429334
101325.4768258695
101325.4250105306
101325.3655333311
101325.3154613407
101325.2643446746
101325.2180632787
101325.1767786006
101325.1434121246
101325.1069282339
101325.0845109968
101325.0741623998
101325.0605434434
101325.0650098594
101325.0774796867
101325.1010131882
101325.131146937
101325.177581921
101325.2406579922
101325.2939561741
101325.3593865946
101325.4128601676
101325.4781273173
101325.531425798
101325.5920197713
101325.6482649627
101325.7003642394
101325.7559744828
101325.8029077491
101325.8528833039
101325.8874574017
101325.9322477618
101325.9556712299
101325.985203435
101325.9990543016
101326.0078699775
101326.0086637255
101325.9956898825
101325.9808515883
101325.9454832333
101325.9108045421
101325.8496520992
101325.7959614375
101325.7334333294
101325.6755074691
101325.6151145818
101325.5600165087
101325.5009166717
101325.4418401269
101325.3916370243
101325.3357565817
101325.2864311028
101325.2367026891
101325.1994754984
101325.1568813561
101325.1261868305
101325.1002652458
101325.0820293538
101325.0715386824
101325.0681124432
101325.0802935639
101325.0939849587
101325.1278660346
101325.1639499201
101325.2208313763
101325.2777509015
101325.3386893758
101325.3950665266
101325.4548980014
101325.5121371649
101325.5695149556
101325.6244722372
101325.6806674239
101325.7344653421
101325.7789512956
101325.8303827211
101325.8724644578
101325.9085900247
101325.941962859
101325.9694979441
101325.9874381415
101326.0002659271
101326.0028880467
101325.9947999283
101325.9837724115
101325.9533629496
101325.9178793019
101325.8727840112
101325.8119038795
101325.7522280892
101325.6943581386
101325.6410912766
101325.5760488276
101325.522341657
101325.4687359916
101325.4089280897
101325.3572646139
101325.30948292
101325.2603697035
101325.2117568995
101325.180846629
101325.142646611
101325.1133688436
101325.0940080809
101325.0816559627
101325.0748971675
101325.0794747898
101325.0967710001
101325.1162214682
101325.1566736543
101325.2021113008
101325.2620971744
101325.3165906567
101325.3815798642
101325.4334707254
101325.4894650217
101325.5538852087
101325.6029242028
101325.6602062665
101325.7099870924
101325.766979563
101325.8058641785
101325.8555991413
101325.8933210364
101325.9248905287
101325.9563822335
101325.9764652527
101325.9916783159
101325.9921584066
101325.9991228927
101325.97876163
101325.961769371
101325.9278786207
101325.8869706215
101325.8294393766
101325.773237444
101325.7158827267
101325.6549121289
101325.6029484502
101325.5434820541
101325.4876831622
101325.432112356
101325.3824046554
101325.3278930321
101325.2808836539
101325.2382758363
101325.1946471394
101325.1608509106
101325.130032047
101325.1078241244
101325.0897020083
101325.0850805311
101325.0835655366
101325.0936186141
101325.1166214538
101325.1462618019
101325.186827265
101325.2447084439
101325.3019135462
101325.358543878
101325.4147431623
101325.4748787598
101325.5269813793
101325.584990484
101325.6397144287
101325.6914959989
101325.7409934658
101325.7901949492
101325.8358181981
101325.8728577728
101325.9113217905
101325.939843965
101325.9653084108
101325.9797871314
101325.9910590809
101325.9909201106
101325.9821621443
101325.9648793943
101325.936323513
101325.8999401271
101325.8489147537
101325.7903087929
101325.7328609863
101325.6755825148
101325.6170257808
101325.5617683337
101325.5024412387
101325.4496371746
101325.3919573528
101325.3410645265
101325.2884699976
101325.2399231326
101325.1952166634
101325.1514774351
101325.1147592032
101325.0805237461
101325.0537723013
101325.0284844686
101325.0147346007
101325.0012440712
101325.0000009457
101325
101325
101325
101325
101325
101325
101325
101325
101325.0000000001
101325.0000000001
101325.0000000001
101325.0000000001
101325.0000000001
101325.0000000001
101325.0000000001
101325.0000000001
101325.0000000001
101325.0000000001
101325.0000000001
101325.0000000001
101325
101325.0000000001
101325.0000000001
101325
101325.0000000001
101325.0000000001
101325.0000000001
101325.0000000001
101325.0000000001
101325.0000000001
101325.0000000001
101325
101325.0000000001
101325.0000000001
101325.0000000001
101325.0000000001
101325.0000000001
101325
101325.0000000001
101325.0000000001
101325.0000000001
101325.0000000001
101325.0000000001
101325.0000000001
101325.0000000001
101325.0000000001
101325.0000000001
101325
101325.0000000001
101325
101325
101325.0000000001
101325.0000000001
101325.0000000001
101325.0000000001
101325
101325.0000000001
101325
101325.0000000001
101325.0000000001
101325.0000000001
101325
101325.0000000001
101325.0000000001
101325.0000000001
101325
101325.0000000001
101325.0000000001
101325.0000000001
101325.0000000001
101325.0000000001
101325.0000000001
101325.0000000001
101325.0000000001
101325.0000000001
101325.0000000001
101325.0000000001
101325.0000000001
101325.0000000001
101325.0000000001
101325.0000000001
101325.0000000001
101325.0000000001
101325.0000000001
101325.0000000001
101325
101325.0000000001
101325.0000000001
101325.0000000001
101325.0000000001
101325.0000000001
101325.0000000001
101325.0000000001
101325.0000000001
101325.0000000001
101325.0000000001
101325.0000000001
101325.0000000001
101325.0000000001
101325.0000000001
101325.0000000001
101325.0000000001
101325.0000000001
101325.0000000001
101325.0000000001
101325.0000000001
101325.0000000001
101325.0000000001
101325.0000000001
101325.0000000001
101325.0000000001
101325.0000000001
101325.0000000001
101325.0000000001
101325.0000000001
101325.0000000001
101325.0000000001
101325.0000000001
101325.0000000001
101325.0000000001
101325.0000000001
101325.0000000001
101325.0000000002
101325.0000000001
101325.0000000001
101325.0000000001
101325.0000000001
101325.0000000001
101325.0000000002
101325.0000000001
101325.0000000002
101325.0000000002
101325.0000000001
101325.0000000001
101325.0000000001
101325.0000000002
101325.0000000001
101325.0000000001
101325.0000000001
101325.0000000001
101325.0000000002
101325.0000000001
101325.0000000002
101325.0000000001
101325.0000000002
101325.0000000002
101325.0000000001
101325.0000000001
101325.0000000001
101325.0000000001
101325.0000000002
101325.0000000002
101325.0000000001
101325.0000000001
101325.0000000002
101325.0000000001
101325.0000000002
101325.0000000001
101325.0000000001
101325.0000000001
101325.0000000002
101325.0000000001
101325.0000000001
101325.0000000001
101325.0000000001
101325.0000000002
101325.0000000002
101325.0000000001
101325.0000000002
101325.0000000002
101325.0000000002
101325.0000000001
101325.0000000002
101325.0000000001
101325.0000000002
101325.0000000002
101325.0000000002
101325.0000000001
101325.0000000002
101325.0000000002
101325.0000000001
101325.0000000002
101325.0000000002
101325.0000000002
101325.0000000002
101325.0000000002
101325.0000000002
101325.0000000002
101325.0000000001
101325.0000000002
101325.0000000002
101325.0000000002
101325.0000000002
101325.0000000002
101325.0000000002
101325.0000000002
101325.0000000002
101325.0000000002
101325.0000000002
101325.0000000002
101325.0000000002
101325.0000000002
101325.0000000001
101325.0000000002
101325.0000000002
101325.0000000002
101325.0000000002
101325.0000000002
101325.0000000002
101325.0000000002
101325.0000000002
101325.0000000002
101325.0000000002
101325.0000000002
101325.0000000002
101325.0000000002
101325.0000000002
101325.0000000002
101325.0000000002
101325.0000000002
101325.0000000002
101325.0000000002
101325.0000000002
101325.0000000002
101325.0000000002
101325.0000000002
101325.0000000002
101325.0000000002
101325.0000000002
101325.0000000002
101325.0000000002
101325.0000000002
101325.0000000002
101325.0000000002
101325.0000000002
101325.0000000002
101325.0000000002
101325.0000000002
101325.0000000002
101325.0000000002
101325.0000000002
101325.0000000002
101325.0000000002
101325.0000000002
101325.0000000002
101325.0000000002
101325.0000000002
101325.0000000002
101325.0000000002
101325.0000000002
101325.0000000002
101325.0000000002
101325.0000000002
101325.0000000002
101325.0000000002
101325.0000000002
101325.0000000003
101325.0000000002
101325.0000000002
101325.0000000002
101325.0000000002
101325.0000000002
101325.0000000002
101325.0000000003
101325.0000000002
101325.0000000003
101325.0000000003
101325.0000000002
101325.0000000002
101325.0000000002
101325.0000000002
101325.0000000002
101325.0000000003
101325.0000000002
101325.0000000002
101325.0000000002
101325.0000000003
101325.0000000002
101325.0000000003
101325.0000000002
101325.0000000002
101325.0000000003
101325.0000000002
101325.0000000003
101325.0000000002
101325.0000000003
101325.0000000002
101325.0000000002
101325.0000000002
101325.0000000003
101325.0000000002
101325.0000000002
101325.0000000002
101325.0000000002
101325.0000000002
101325.0000000002
101325.0000000002
101325.0000000002
101325.0000000002
101325.0000000002
101325.0000000002
)
;

boundaryField
{
    inlet
    {
        type            calculated;
        value           uniform 101325.0070655231;
    }
    outlet
    {
        type            calculated;
        value           uniform 101325.0000000002;
    }
    frontAndBack
    {
        type            empty;
    }
}


// ************************************************************************* //
