/*--------------------------------*- C++ -*----------------------------------*\
| =========                 |                                                 |
| \\      /  F ield         | OpenFOAM: The Open Source CFD Toolbox           |
|  \\    /   O peration     | Version:  v2012                                 |
|   \\  /    A nd           | Website:  www.openfoam.com                      |
|    \\/     M anipulation  |                                                 |
\*---------------------------------------------------------------------------*/
FoamFile
{
    version     2.0;
    format      ascii;
    class       volVectorField;
    location    "0.005";
    object      U;
}
// * * * * * * * * * * * * * * * * * * * * * * * * * * * * * * * * * * * * * //

dimensions      [0 1 -1 0 0 0 0];


internalField   nonuniform List<vector> 
1000
(
(-0.02048582196623415 0 0)
(-0.04875215382197802 0 0)
(-0.04832834377163626 0 0)
(-0.07461473369584797 0 0)
(-0.08171575610591479 0 0)
(-0.09403106732789646 0 0)
(-0.1053003588088469 0 0)
(-0.1062717917808945 0 0)
(-0.1186256024795251 0 0)
(-0.1194322535001454 0 0)
(-0.1188178269817257 0 0)
(-0.1188570451675997 0 0)
(-0.1157145098380669 0 0)
(-0.1113739328027683 0 0)
(-0.1079391376111202 0 0)
(-0.09513370422747321 0 0)
(-0.08688959698264452 0 0)
(-0.07397027972966509 0 0)
(-0.05791939133983528 0 0)
(-0.04573815324873766 0 0)
(-0.02914418048757922 0 0)
(-0.01325469502606116 0 0)
(0.002933274770400774 0 0)
(0.01960377379046945 0 0)
(0.03511409007449451 0 0)
(0.05116022378034962 0 0)
(0.06536300636763558 0 0)
(0.07859308279840001 0 0)
(0.09110560100704514 0 0)
(0.1012204716157178 0 0)
(0.1146980731679788 0 0)
(0.1170052030884036 0 0)
(0.1172776176424879 0 0)
(0.1168541042875244 0 0)
(0.1161611722111663 0 0)
(0.1137818413525152 0 0)
(0.1111573432839046 0 0)
(0.1060429342592363 0 0)
(0.09869068156163641 0 0)
(0.08958030516440768 0 0)
(0.07804242060795631 0 0)
(0.06439076072944447 0 0)
(0.04932077241186227 0 0)
(0.033373242186197 0 0)
(0.01663927847180047 0 0)
(0.0003197588571565508 0 0)
(-0.01612453588202944 0 0)
(-0.03213220109960292 0 0)
(-0.04761444192124673 0 0)
(-0.0626408312097536 0 0)
(-0.07666091688896932 0 0)
(-0.08943623732031389 0 0)
(-0.1026715836975714 0 0)
(-0.1150577234502866 0 0)
(-0.1159664902473474 0 0)
(-0.1156491119325816 0 0)
(-0.1155300542357038 0 0)
(-0.1147009929223979 0 0)
(-0.1114301918354986 0 0)
(-0.1107527881030809 0 0)
(-0.1047371094342392 0 0)
(-0.0973022519287243 0 0)
(-0.09342249045837181 0 0)
(-0.07909460321711949 0 0)
(-0.06789795330140577 0 0)
(-0.05592450833524454 0 0)
(-0.03670131358952409 0 0)
(-0.02245835927350935 0 0)
(-0.004717652829230856 0 0)
(0.01291499099800135 0 0)
(0.02842858042744162 0 0)
(0.04502324482123487 0 0)
(0.05972607239776066 0 0)
(0.07392014076606156 0 0)
(0.08711131955840082 0 0)
(0.1018148045692578 0 0)
(0.1142323578020826 0 0)
(0.1146612075518583 0 0)
(0.1145837070572895 0 0)
(0.1147167353433917 0 0)
(0.1125733540482059 0 0)
(0.1123250350777503 0 0)
(0.1088485036416347 0 0)
(0.1037258387636722 0 0)
(0.1010531292843688 0 0)
(0.09085553096257558 0 0)
(0.08247489872100031 0 0)
(0.0728630242829323 0 0)
(0.05668903721435497 0 0)
(0.0442034228341207 0 0)
(0.02711430881124102 0 0)
(0.009373058242143144 0 0)
(-0.007088336676619521 0 0)
(-0.02544919584713591 0 0)
(-0.04191610014685487 0 0)
(-0.0579820176864551 0 0)
(-0.07335287418492566 0 0)
(-0.08649106710134125 0 0)
(-0.1036698919650353 0 0)
(-0.1133065097770101 0 0)
(-0.1135377201328942 0 0)
(-0.1133397871539014 0 0)
(-0.112936874658109 0 0)
(-0.112840052013551 0 0)
(-0.1097123671575218 0 0)
(-0.1081037143494125 0 0)
(-0.1056428595381846 0 0)
(-0.09734854460459492 0 0)
(-0.09328153143580768 0 0)
(-0.08389055088857361 0 0)
(-0.07177154948350105 0 0)
(-0.06204587817799209 0 0)
(-0.0460380416628591 0 0)
(-0.03093073531360781 0 0)
(-0.0150911619908685 0 0)
(0.003281923275023458 0 0)
(0.02025217650753127 0 0)
(0.03778576658152372 0 0)
(0.05453383225084901 0 0)
(0.07035807708844101 0 0)
(0.08443575549733641 0 0)
(0.1018368521682158 0 0)
(0.1123183614999552 0 0)
(0.1125871449637517 0 0)
(0.1122901297580732 0 0)
(0.1122194217100906 0 0)
(0.1112546318011441 0 0)
(0.1095940756983207 0 0)
(0.1081581350755154 0 0)
(0.1032273578580906 0 0)
(0.09953929498080373 0 0)
(0.09427124283045529 0 0)
(0.08338415535633503 0 0)
(0.07705219909896079 0 0)
(0.06451076251141265 0 0)
(0.04885002909431825 0 0)
(0.03740453670484003 0 0)
(0.01876008065456403 0 0)
(0.001614490042057517 0 0)
(-0.01505496944339809 0 0)
(-0.03443187336099266 0 0)
(-0.05111752417886655 0 0)
(-0.06835761945748774 0 0)
(-0.08384031889537216 0 0)
(-0.1036062639096735 0 0)
(-0.111818466979473 0 0)
(-0.1119768296999709 0 0)
(-0.11168024284119 0 0)
(-0.1114170382665945 0 0)
(-0.1108257697330081 0 0)
(-0.1085718788707347 0 0)
(-0.107491139444237 0 0)
(-0.1034762621211429 0 0)
(-0.09850955376870134 0 0)
(-0.09411984308335646 0 0)
(-0.0846890452256686 0 0)
(-0.07641690914838332 0 0)
(-0.06607975088227856 0 0)
(-0.05184104770540907 0 0)
(-0.03916857268531488 0 0)
(-0.02303439621884381 0 0)
(-0.005728253745868138 0 0)
(0.0106370291471928 0 0)
(0.02938606334420449 0 0)
(0.04686906218048189 0 0)
(0.06413517061063925 0 0)
(0.0805386243614442 0 0)
(0.1012188079688657 0 0)
(0.1107422816094195 0 0)
(0.1107278476171881 0 0)
(0.1108336489474918 0 0)
(0.110618779455096 0 0)
(0.1092547809228057 0 0)
(0.1090258491293285 0 0)
(0.1061468068516183 0 0)
(0.1029042214668174 0 0)
(0.100738823614597 0 0)
(0.09262487806885734 0 0)
(0.08742495298674062 0 0)
(0.07935555331247558 0 0)
(0.06688703200180773 0 0)
(0.0573976548638814 0 0)
(0.04219091327765676 0 0)
(0.02689980929068068 0 0)
(0.01144048516917501 0 0)
(-0.007407084052878798 0 0)
(-0.02479848959828743 0 0)
(-0.04334150261766567 0 0)
(-0.06214565484030533 0 0)
(-0.07844703156204354 0 0)
(-0.1019722491633022 0 0)
(-0.1103396982317685 0 0)
(-0.1103653195266163 0 0)
(-0.1107366856250244 0 0)
(-0.1098386524967112 0 0)
(-0.1092351417007927 0 0)
(-0.1085204348846867 0 0)
(-0.1051177484019511 0 0)
(-0.1035558172223133 0 0)
(-0.099017973136844 0 0)
(-0.092688241118719 0 0)
(-0.08836189217742431 0 0)
(-0.07788452040955585 0 0)
(-0.068909800597069 0 0)
(-0.05890295045484115 0 0)
(-0.04299549565035947 0 0)
(-0.03072603789166315 0 0)
(-0.01456247689128197 0 0)
(0.003677910387660351 0 0)
(0.01977878367120838 0 0)
(0.03877856093191613 0 0)
(0.05709150838776753 0 0)
(0.07364818363859847 0 0)
(0.0957803730473107 0 0)
(0.1094960085048562 0 0)
(0.1098442320976897 0 0)
(0.1096617187833842 0 0)
(0.1096974491568293 0 0)
(0.1084577916920413 0 0)
(0.1075773045851518 0 0)
(0.1061263171922498 0 0)
(0.1022641662077082 0 0)
(0.09990574734367895 0 0)
(0.09437846055446734 0 0)
(0.08785485532744974 0 0)
(0.08134829926699637 0 0)
(0.07072592717774161 0 0)
(0.06073486949839829 0 0)
(0.04801656157624866 0 0)
(0.03341588541451 0 0)
(0.01857528932507511 0 0)
(0.00092101194480076 0 0)
(-0.01648559079992221 0 0)
(-0.03514638827493531 0 0)
(-0.05467311551225691 0 0)
(-0.0720116288779445 0 0)
(-0.09685133249648897 0 0)
(-0.1086860709251026 0 0)
(-0.1089737927129542 0 0)
(-0.109251568797122 0 0)
(-0.1084098797246529 0 0)
(-0.1080891267149199 0 0)
(-0.1070189271177165 0 0)
(-0.1044638157724305 0 0)
(-0.1029375770268928 0 0)
(-0.09842204969007819 0 0)
(-0.0938012950939538 0 0)
(-0.08877964396705176 0 0)
(-0.07988558590892919 0 0)
(-0.07229078238455594 0 0)
(-0.06139794251361718 0 0)
(-0.04888545776687297 0 0)
(-0.03646302197083637 0 0)
(-0.02035544447559502 0 0)
(-0.004808128676648806 0 0)
(0.01247848377562681 0 0)
(0.03114629676252918 0 0)
(0.04907301298812546 0 0)
(0.0676552042651735 0 0)
(0.08912977206737531 0 0)
(0.1073319929128012 0 0)
(0.1082357497383044 0 0)
(0.1082280170876972 0 0)
(0.1079169107326455 0 0)
(0.1075266383582181 0 0)
(0.1064921603180911 0 0)
(0.1046993922228242 0 0)
(0.1026746017431715 0 0)
(0.09930173596571029 0 0)
(0.09464120405134455 0 0)
(0.08956672289400577 0 0)
(0.08202509400056439 0 0)
(0.07383046542505285 0 0)
(0.06374826321658476 0 0)
(0.05217697077034852 0 0)
(0.03904068246631352 0 0)
(0.02419944886617381 0 0)
(0.00842236938274921 0 0)
(-0.009186021621960755 0 0)
(-0.02742574646399355 0 0)
(-0.04651306231295071 0 0)
(-0.06529388007329789 0 0)
(-0.08805074184234724 0 0)
(-0.1066712525845226 0 0)
(-0.1075393501406566 0 0)
(-0.1076391247829465 0 0)
(-0.1072794775752051 0 0)
(-0.106625805077091 0 0)
(-0.1064259665157162 0 0)
(-0.103688474664637 0 0)
(-0.1019328473118098 0 0)
(-0.09910959289881867 0 0)
(-0.09360678595718558 0 0)
(-0.08959252187568691 0 0)
(-0.08191160348625431 0 0)
(-0.0741666013292427 0 0)
(-0.06498955846670196 0 0)
(-0.05288699426809301 0 0)
(-0.04162168745434802 0 0)
(-0.02630437078217328 0 0)
(-0.01129930479245063 0 0)
(0.004706382596220872 0 0)
(0.02366859177825346 0 0)
(0.0408761145831049 0 0)
(0.05993873214724521 0 0)
(0.07897169945230161 0 0)
(0.1022090770303128 0 0)
(0.1072598259498818 0 0)
(0.107241370247878 0 0)
(0.1070413738042157 0 0)
(0.1065295670244965 0 0)
(0.1050158264807207 0 0)
(0.1047906589439515 0 0)
(0.1024237255803549 0 0)
(0.09824340051913306 0 0)
(0.09614288049346767 0 0)
(0.09011225762369723 0 0)
(0.0832884458885691 0 0)
(0.07729518512931291 0 0)
(0.06644784982836978 0 0)
(0.05630834811834536 0 0)
(0.0447137972408289 0 0)
(0.02930300978245168 0 0)
(0.01533775028189033 0 0)
(-0.002000168913365233 0 0)
(-0.0202839016232491 0 0)
(-0.03815008570431394 0 0)
(-0.05841376702020337 0 0)
(-0.07777016679037112 0 0)
(-0.102979221616484 0 0)
(-0.1061081033029149 0 0)
(-0.1060474813852629 0 0)
(-0.1061369530878934 0 0)
(-0.1055612125084926 0 0)
(-0.1049628464417986 0 0)
(-0.1034978509981315 0 0)
(-0.1015348072131583 0 0)
(-0.09860858770107354 0 0)
(-0.09453835345272851 0 0)
(-0.08999038034306658 0 0)
(-0.08327269993502072 0 0)
(-0.07608111223510629 0 0)
(-0.06737606988187449 0 0)
(-0.05643641633117415 0 0)
(-0.04536874348616218 0 0)
(-0.0317889202296459 0 0)
(-0.01715054635574017 0 0)
(-0.001617058422668109 0 0)
(0.01582035534396077 0 0)
(0.03341583245866833 0 0)
(0.05245639117009766 0 0)
(0.07016506779555831 0 0)
(0.09475671516032193 0 0)
(0.1055319482890596 0 0)
(0.105559580957452 0 0)
(0.1055557021562197 0 0)
(0.1053955296091278 0 0)
(0.1038225408738631 0 0)
(0.1036966578537602 0 0)
(0.1016119174174785 0 0)
(0.09793505153039694 0 0)
(0.09637169709971563 0 0)
(0.09043782112200639 0 0)
(0.08468872140091674 0 0)
(0.07909473403250453 0 0)
(0.06863871776051227 0 0)
(0.0601497358295084 0 0)
(0.0484414365683953 0 0)
(0.03460771967349922 0 0)
(0.02129701149591022 0 0)
(0.004442693138929741 0 0)
(-0.01258343188225787 0 0)
(-0.03056100992483443 0 0)
(-0.05051522814914213 0 0)
(-0.06831966538543056 0 0)
(-0.09487172743009561 0 0)
(-0.1049533982667953 0 0)
(-0.105060273384987 0 0)
(-0.1049044789513791 0 0)
(-0.1045639263985695 0 0)
(-0.1042003836259217 0 0)
(-0.1026697336214679 0 0)
(-0.1011497429114778 0 0)
(-0.0984208469761189 0 0)
(-0.09473350895759181 0 0)
(-0.09072902187534761 0 0)
(-0.08442265458469482 0 0)
(-0.07792388831973253 0 0)
(-0.06959042570985415 0 0)
(-0.0596568749291855 0 0)
(-0.04899216046587314 0 0)
(-0.0360187688985327 0 0)
(-0.02251094727316201 0 0)
(-0.0071270041509573 0 0)
(0.009324287649994783 0 0)
(0.02647199508270665 0 0)
(0.04513016775421348 0 0)
(0.06280467684776495 0 0)
(0.08461071849614531 0 0)
(0.1032170911328336 0 0)
(0.1041892772847832 0 0)
(0.1041767304839917 0 0)
(0.1037000360313938 0 0)
(0.1036439823690158 0 0)
(0.1022050498028355 0 0)
(0.1005379236203221 0 0)
(0.09931195794764858 0 0)
(0.09459018310606984 0 0)
(0.09172474886851291 0 0)
(0.08688095330165642 0 0)
(0.07834878628186123 0 0)
(0.07297027023488468 0 0)
(0.06227857682378846 0 0)
(0.05106660781618266 0 0)
(0.04068279671598407 0 0)
(0.02478351705602506 0 0)
(0.01075225735403954 0 0)
(-0.00546170341680703 0 0)
(-0.02443559793592451 0 0)
(-0.04187032496061081 0 0)
(-0.06099017908138694 0 0)
(-0.08321735369275149 0 0)
(-0.1026997574776142 0 0)
(-0.1037103250321852 0 0)
(-0.1036452328473763 0 0)
(-0.1034973586296372 0 0)
(-0.1028386693258478 0 0)
(-0.1020521973804127 0 0)
(-0.1002782893225448 0 0)
(-0.09794346439603273 0 0)
(-0.09530309989620694 0 0)
(-0.0904197126458597 0 0)
(-0.08594165094127247 0 0)
(-0.07935207881000435 0 0)
(-0.07143772003146169 0 0)
(-0.06307155833007903 0 0)
(-0.05231420159112624 0 0)
(-0.04055007706994727 0 0)
(-0.02778614118271898 0 0)
(-0.01284825936542656 0 0)
(0.00265992614765376 0 0)
(0.01927680166401764 0 0)
(0.03735006032288851 0 0)
(0.05543898823409216 0 0)
(0.07328838917847329 0 0)
(0.0980265441764471 0 0)
(0.1030048258509552 0 0)
(0.1029704119596107 0 0)
(0.102898825834038 0 0)
(0.1022540016113338 0 0)
(0.1021625723670389 0 0)
(0.09984984909125208 0 0)
(0.09803145895658098 0 0)
(0.09651068570057621 0 0)
(0.09077665347216836 0 0)
(0.08746282931721969 0 0)
(0.08172066903460307 0 0)
(0.07297500589426077 0 0)
(0.0661691308994224 0 0)
(0.05497140126559408 0 0)
(0.04351230772119 0 0)
(0.03131211166236957 0 0)
(0.01573955448876559 0 0)
(0.0008351208356611894 0 0)
(-0.01666753439177714 0 0)
(-0.03483449809989803 0 0)
(-0.05335006082447954 0 0)
(-0.07238406928682277 0 0)
(-0.09776610254356259 0 0)
(-0.1023217380128421 0 0)
(-0.1021677673176017 0 0)
(-0.1024094761612595 0 0)
(-0.1017761472262041 0 0)
(-0.1009282161838938 0 0)
(-0.1000570386109413 0 0)
(-0.09773518890654416 0 0)
(-0.09448698225787316 0 0)
(-0.09254959726457698 0 0)
(-0.08620690870323652 0 0)
(-0.08049386428660098 0 0)
(-0.07471842392769583 0 0)
(-0.06454523265545462 0 0)
(-0.05582598430657319 0 0)
(-0.04472006896951644 0 0)
(-0.03158561391895781 0 0)
(-0.01857799273181713 0 0)
(-0.003108052955921431 0 0)
(0.01303785464702819 0 0)
(0.0298706808565221 0 0)
(0.0482049659511557 0 0)
(0.06520363277029029 0 0)
(0.08835237660834117 0 0)
(0.10142654928402 0 0)
(0.1017341767935528 0 0)
(0.1014742182084755 0 0)
(0.1014706340578372 0 0)
(0.1006397471370116 0 0)
(0.09915305219596816 0 0)
(0.09871827968675449 0 0)
(0.09494519264481452 0 0)
(0.09183003132425221 0 0)
(0.08898628674605188 0 0)
(0.08113609290457122 0 0)
(0.07633763116321481 0 0)
(0.0683105079258874 0 0)
(0.05711180674781768 0 0)
(0.04857041093402185 0 0)
(0.03486631409377582 0 0)
(0.02108038545353281 0 0)
(0.007134438093781853 0 0)
(-0.01064484660801283 0 0)
(-0.02725241786020462 0 0)
(-0.04591564296236806 0 0)
(-0.06392043051452942 0 0)
(-0.08823091912467815 0 0)
(-0.1007621651945473 0 0)
(-0.1010711506451312 0 0)
(-0.1013604685308469 0 0)
(-0.1005046386481427 0 0)
(-0.1002224330296943 0 0)
(-0.09941492906269227 0 0)
(-0.09664006395338566 0 0)
(-0.09549987381130327 0 0)
(-0.09176356523349852 0 0)
(-0.08659818705103746 0 0)
(-0.08286306502327044 0 0)
(-0.0748806814152231 0 0)
(-0.06734314650890086 0 0)
(-0.05922764325672495 0 0)
(-0.04710666308478552 0 0)
(-0.03634280052829728 0 0)
(-0.02340469710000177 0 0)
(-0.008099326383868961 0 0)
(0.006495731642499984 0 0)
(0.02351521163886204 0 0)
(0.04081612847865353 0 0)
(0.05808411332156019 0 0)
(0.07737223520518352 0 0)
(0.09845108347449154 0 0)
(0.1003022127504219 0 0)
(0.1004434087769602 0 0)
(0.1001280568763124 0 0)
(0.09973326860992698 0 0)
(0.09891889250575836 0 0)
(0.09711264904767233 0 0)
(0.09533214027782244 0 0)
(0.0923581789167969 0 0)
(0.0879779225840223 0 0)
(0.08389804819092153 0 0)
(0.07683065873381774 0 0)
(0.06982685139626099 0 0)
(0.06124842141266142 0 0)
(0.05037341099051115 0 0)
(0.03962524822687967 0 0)
(0.02607774039248285 0 0)
(0.01170990647077998 0 0)
(-0.003498149420807429 0 0)
(-0.02096528174089911 0 0)
(-0.03845586725151151 0 0)
(-0.0563881823006164 0 0)
(-0.0766639734677496 0 0)
(-0.09798488598902907 0 0)
(-0.09959152304497984 0 0)
(-0.09948454645688486 0 0)
(-0.09949905989879283 0 0)
(-0.09905283544941523 0 0)
(-0.09766293468712617 0 0)
(-0.09716941341760048 0 0)
(-0.0941535639097382 0 0)
(-0.09117484330197419 0 0)
(-0.08879587133523446 0 0)
(-0.08173276080673378 0 0)
(-0.07739326663635308 0 0)
(-0.07029863807915419 0 0)
(-0.06009319451864008 0 0)
(-0.05238743553259528 0 0)
(-0.04006137396966093 0 0)
(-0.02750271739743815 0 0)
(-0.01481351963521111 0 0)
(0.001235553543870549 0 0)
(0.01655140874812625 0 0)
(0.03332223807215823 0 0)
(0.05145078181141034 0 0)
(0.06791986037279467 0 0)
(0.0916123325647234 0 0)
(0.09910211651441128 0 0)
(0.09921753627673695 0 0)
(0.09901735000747348 0 0)
(0.09860998267754351 0 0)
(0.09818764035676207 0 0)
(0.09651919184291344 0 0)
(0.09493880119785013 0 0)
(0.09254278449444385 0 0)
(0.08876142299669972 0 0)
(0.08392151514878507 0 0)
(0.0790596728206942 0 0)
(0.07147888343241053 0 0)
(0.06335600065146182 0 0)
(0.05435286633134254 0 0)
(0.0427022123997825 0 0)
(0.03092129914753031 0 0)
(0.01698905251714542 0 0)
(0.001998745263457159 0 0)
(-0.01411354973251719 0 0)
(-0.03145135293012596 0 0)
(-0.04937133303246861 0 0)
(-0.06705986981478856 0 0)
(-0.09150028275413498 0 0)
(-0.09851889645383341 0 0)
(-0.09850046059962393 0 0)
(-0.09870243782347643 0 0)
(-0.09770632187070752 0 0)
(-0.09786938917075733 0 0)
(-0.09591517260339803 0 0)
(-0.09424244918812731 0 0)
(-0.09205063800900212 0 0)
(-0.08791446096180827 0 0)
(-0.08369552082899298 0 0)
(-0.07833813369768747 0 0)
(-0.07104616960917662 0 0)
(-0.06362627819348411 0 0)
(-0.05408672075761125 0 0)
(-0.04354502097204995 0 0)
(-0.03203192634851801 0 0)
(-0.01858891553448109 0 0)
(-0.004646326124069506 0 0)
(0.01071374218364311 0 0)
(0.0270987509160213 0 0)
(0.04390863267841465 0 0)
(0.06051198228511845 0 0)
(0.08134184205236285 0 0)
(0.09726868368226251 0 0)
(0.09784224969812846 0 0)
(0.09782045817933985 0 0)
(0.09741659836674796 0 0)
(0.09720336708721074 0 0)
(0.0959394237734259 0 0)
(0.09430343182095695 0 0)
(0.09227754020476443 0 0)
(0.08869264819783007 0 0)
(0.08503255569546593 0 0)
(0.07968585423293299 0 0)
(0.07334203372129169 0 0)
(0.06598170389161713 0 0)
(0.05684648536204734 0 0)
(0.04674444552275703 0 0)
(0.03498477158609262 0 0)
(0.02205408773352382 0 0)
(0.0075219949060266 0 0)
(-0.007941563636090838 0 0)
(-0.02458603628982932 0 0)
(-0.04236734855719818 0 0)
(-0.05916576961601402 0 0)
(-0.08148754811686128 0 0)
(-0.09685003614011177 0 0)
(-0.09731795687909231 0 0)
(-0.09715202780837191 0 0)
(-0.09698620919601991 0 0)
(-0.09653022468684436 0 0)
(-0.09539777186517226 0 0)
(-0.09370528860946337 0 0)
(-0.09167097028534577 0 0)
(-0.08812681397818531 0 0)
(-0.08447008180516442 0 0)
(-0.0791807620662382 0 0)
(-0.07297647793783552 0 0)
(-0.06575799452429591 0 0)
(-0.05698473840974156 0 0)
(-0.04719575315342223 0 0)
(-0.03597253381400482 0 0)
(-0.02372185631144354 0 0)
(-0.009763793506713849 0 0)
(0.004658226741088951 0 0)
(0.02054428172805984 0 0)
(0.03715990905429629 0 0)
(0.05402900602900333 0 0)
(0.07096306794381313 0 0)
(0.09374750990429113 0 0)
(0.09795700510403452 0 0)
(0.09808390838267705 0 0)
(0.09804938100482703 0 0)
(0.09756030095012357 0 0)
(0.09687674112749377 0 0)
(0.09628195357813354 0 0)
(0.09391756019003308 0 0)
(0.0924618623142429 0 0)
(0.08949280918333985 0 0)
(0.08502495899670706 0 0)
(0.0816871049597953 0 0)
(0.07502115191789432 0 0)
(0.06901468288541519 0 0)
(0.06216223963635711 0 0)
(0.05270783175029554 0 0)
(0.04469833690912241 0 0)
(0.03464966645638338 0 0)
(0.02424316245372972 0 0)
(0.01387932630741857 0 0)
(0.001172390132333048 0 0)
(8.912193330590282e-07 0 0)
(-1.027309347822009e-11 0 0)
(-1.082594017451693e-11 0 0)
(-1.009026266924451e-11 0 0)
(-1.053835602928269e-11 0 0)
(-8.525150919998837e-12 0 0)
(-6.953701784547166e-12 0 0)
(-7.111967071639508e-12 0 0)
(-5.283142131057916e-12 0 0)
(-4.261767781198774e-12 0 0)
(-3.817599704348165e-12 0 0)
(-2.090558195699257e-12 0 0)
(-1.882604063530455e-12 0 0)
(-7.845366059951481e-13 0 0)
(-1.334611391586922e-12 0 0)
(-9.412195344228544e-13 0 0)
(-8.629110691459894e-13 0 0)
(-1.201565243878679e-12 0 0)
(-9.688837757608609e-13 0 0)
(-8.878363987168547e-13 0 0)
(-9.412525333598331e-13 0 0)
(-1.019923986943202e-12 0 0)
(-9.138192845804024e-13 0 0)
(-1.126624260481347e-12 0 0)
(-6.525150156426747e-13 0 0)
(-9.947676648135455e-13 0 0)
(-8.87935395527712e-13 0 0)
(-7.307904819826581e-13 0 0)
(-9.687847789499873e-13 0 0)
(-9.413845291076226e-13 0 0)
(-5.240259018543824e-13 0 0)
(-1.278654338798644e-12 0 0)
(-7.85821974226093e-13 0 0)
(-8.377877459532217e-13 0 0)
(-1.283670177215551e-12 0 0)
(-2.602797115820634e-13 0 0)
(-1.149140667654674e-12 0 0)
(-8.627790733981252e-13 0 0)
(-6.264661319051045e-13 0 0)
(-8.914348731549657e-13 0 0)
(-6.499080996233726e-13 0 0)
(-6.55981494332901e-13 0 0)
(-9.938091053317621e-13 0 0)
(-7.05832153474727e-13 0 0)
(-7.59446281739479e-13 0 0)
(-7.569383625310469e-13 0 0)
(-8.628450712719525e-13 0 0)
(-6.53899380684476e-13 0 0)
(-5.490832271731399e-13 0 0)
(-9.148768408730616e-13 0 0)
(-7.058651524116871e-13 0 0)
(-7.060961449704017e-13 0 0)
(-6.274906892609106e-13 0 0)
(-4.97084456508924e-13 0 0)
(-9.423100896524093e-13 0 0)
(-7.84338612373415e-13 0 0)
(-4.707087640222937e-13 0 0)
(-6.783329068214523e-13 0 0)
(-9.678262194682054e-13 0 0)
(-2.38886858575323e-13 0 0)
(-1.039536487664702e-12 0 0)
(-7.335953916236473e-13 0 0)
(-7.843716113103265e-13 0 0)
(-8.638696286277298e-13 0 0)
(-5.755909154075795e-13 0 0)
(-1.254981378521629e-12 0 0)
(-2.599529028329805e-13 0 0)
(-1.047192241037777e-12 0 0)
(-8.629110691459281e-13 0 0)
(-9.412855322968029e-13 0 0)
(-9.952924671843251e-13 0 0)
(-8.354448214297266e-13 0 0)
(-7.843716113102651e-13 0 0)
(-8.364033809115001e-13 0 0)
(-1.22909748946899e-12 0 0)
(-9.946356690658025e-13 0 0)
(-5.491492250470348e-13 0 0)
(-7.832810560806821e-13 0 0)
(-8.365023777223265e-13 0 0)
(-7.049395918667716e-13 0 0)
(-5.491492250470597e-13 0 0)
(-1.020882546424932e-12 0 0)
(-7.058651524117183e-13 0 0)
(-7.845696049320754e-13 0 0)
(-3.948422200799117e-13 0 0)
(-1.358215173369583e-12 0 0)
(-8.385435408826891e-13 0 0)
(-5.216169794568665e-13 0 0)
(-5.735497522471059e-13 0 0)
(-1.282711617733618e-12 0 0)
(-2.862295985087609e-13 0 0)
(-8.368951843453847e-13 0 0)
(-9.662438608046212e-13 0 0)
(-1.371034266431973e-13 0 0)
(-1.145476195342648e-12 0 0)
(-6.278206786303715e-13 0 0)
(-7.842726144995572e-13 0 0)
(-4.693573979173848e-13 0 0)
(-7.060631460334468e-13 0 0)
(-1.021209355174174e-12 0 0)
(1.049151503222113e-13 0 0)
(-9.404589685627381e-13 0 0)
(-4.481593579119926e-13 0 0)
(-6.500400953712008e-13 0 0)
(-3.934248561010731e-13 0 0)
(-8.628450712720533e-13 0 0)
(-4.187759912320105e-13 0 0)
(-7.855281644138972e-13 0 0)
(-8.354118224927078e-13 0 0)
(-2.654935436206276e-13 0 0)
(-9.375550621108934e-13 0 0)
(-7.306946657920566e-13 0 0)
(-5.765824738263799e-13 0 0)
(-7.059971481595286e-13 0 0)
(-6.275896860718834e-13 0 0)
(-6.029911652499171e-13 0 0)
(-7.295381126886847e-13 0 0)
(-3.932928603532398e-13 0 0)
(-3.127372867431882e-13 0 0)
(-8.888279571356716e-13 0 0)
(-6.560474922068766e-13 0 0)
(-8.868118413610831e-13 0 0)
(-6.275896860717428e-13 0 0)
(-9.149428387471161e-13 0 0)
(-6.53932379621311e-13 0 0)
(-5.491162261100894e-13 0 0)
(-1.099191011702008e-12 0 0)
(-6.275896860717772e-13 0 0)
(-9.676282258464186e-13 0 0)
(-7.605038380321266e-13 0 0)
(-9.652853013228136e-13 0 0)
(-9.138852824543919e-13 0 0)
(-8.887619592617494e-13 0 0)
(-5.491162261100236e-13 0 0)
(-1.281129259070199e-12 0 0)
(-9.952264693105124e-13 0 0)
(-7.580289177606955e-13 0 0)
(-1.124608144706784e-12 0 0)
(-8.353788235557597e-13 0 0)
(-1.255080375332662e-12 0 0)
(-1.254981378521551e-12 0 0)
(-9.673344160343422e-13 0 0)
(-1.333553835294306e-12 0 0)
(-7.858549731630639e-13 0 0)
(-1.620873989032692e-12 0 0)
(-9.436614557573815e-13 0 0)
(-1.224114649989185e-12 0 0)
(-1.047225239974704e-12 0 0)
(-1.411895299508276e-12 0 0)
(-1.25517937214325e-12 0 0)
(-1.256071933751467e-12 0 0)
(-1.203081604668438e-12 0 0)
(-1.202688798045515e-12 0 0)
(-1.462803514942738e-12 0 0)
(-1.04831579520439e-12 0 0)
(-1.515228091166909e-12 0 0)
(-1.097141896990309e-12 0 0)
(-1.019857989069339e-12 0 0)
(-1.41199429631907e-12 0 0)
(-7.070547044522687e-13 0 0)
(-1.568743222620705e-12 0 0)
(-1.333454838483471e-12 0 0)
(-1.097174895927465e-12 0 0)
(-1.048282796267496e-12 0 0)
(-1.618659879636442e-12 0 0)
(-1.019791991195248e-12 0 0)
(-1.019725993321562e-12 0 0)
(-1.647216682582354e-12 0 0)
(-1.126723257292196e-12 0 0)
(-1.2262595808911e-12 0 0)
(-1.415592770757101e-12 0 0)
(-9.387776130884102e-13 0 0)
(-1.253923822228898e-12 0 0)
(-1.227548129742459e-12 0 0)
(-1.440518100328079e-12 0 0)
(-1.333487837420457e-12 0 0)
(-7.844046102473361e-13 0 0)
(-1.438435986679553e-12 0 0)
(-1.227515130805574e-12 0 0)
(-7.880360836223628e-13 0 0)
(-1.672208010027256e-12 0 0)
(-8.343212672629433e-13 0 0)
(-1.569899775724289e-12 0 0)
(-7.558148083644268e-13 0 0)
(-1.255245370017431e-12 0 0)
(-1.360987084073691e-12 0 0)
(-7.870115262665946e-13 0 0)
(-1.357028801949534e-12 0 0)
(-7.076125057599203e-13 0 0)
(-1.332004475567767e-12 0 0)
(-9.688837757608985e-13 0 0)
(-1.124347333831566e-12 0 0)
(-1.176705912181881e-12 0 0)
(-9.128937240355844e-13 0 0)
(-1.125797696747321e-12 0 0)
(-9.44950004608751e-13 0 0)
(-1.331177911833752e-12 0 0)
(-8.89484755254172e-13 0 0)
(-1.149206665528607e-12 0 0)
(-1.020022983754111e-12 0 0)
(-1.227647126553302e-12 0 0)
(-9.690487704456622e-13 0 0)
(-1.177928463159293e-12 0 0)
(-8.880673912755802e-13 0 0)
(-1.128536608514257e-12 0 0)
(-1.226787563882352e-12 0 0)
(-6.788608898127969e-13 0 0)
(-1.020055982691049e-12 0 0)
(-1.333916823600708e-12 0 0)
(-6.278866765043425e-13 0 0)
(-1.361383071317119e-12 0 0)
(-6.79918446105547e-13 0 0)
(-1.490896742460966e-12 0 0)
(-7.062941385921606e-13 0 0)
(-8.62084505411935e-13 0 0)
(-1.099850990441056e-12 0 0)
(-5.994288703691961e-13 0 0)
(-1.125995690369018e-12 0 0)
(-8.135553940584237e-13 0 0)
(-6.502380889929378e-13 0 0)
(-8.919958550831188e-13 0 0)
(-1.070038637580646e-12 0 0)
(-4.986039979189975e-13 0 0)
(-1.098727436274446e-12 0 0)
(-8.632080595784981e-13 0 0)
(-9.41747517414099e-13 0 0)
(-8.633730542633178e-13 0 0)
(-7.848005974907479e-13 0 0)
(-9.418465142250083e-13 0 0)
(-4.226384571656898e-13 0 0)
(-1.119463491162563e-12 0 0)
(-6.84074721851386e-13 0 0)
(-5.20856413596696e-13 0 0)
(-7.574003476483582e-13 0 0)
(-7.339913788670335e-13 0 0)
(-7.845366059951524e-13 0 0)
(-7.365982948863717e-13 0 0)
(-4.409655896562572e-13 0 0)
(-9.416155216662885e-13 0 0)
(-5.495452122905036e-13 0 0)
(-7.363013044537865e-13 0 0)
(-5.196040443026798e-13 0 0)
(-1.572439103559747e-13 0 0)
(-1.098562441589661e-12 0 0)
(-4.720963096845983e-13 0 0)
(-3.405335238289809e-13 0 0)
(-5.220789645741517e-13 0 0)
(-4.744722331451971e-13 0 0)
(-5.459797367893275e-13 0 0)
(-7.063271375290148e-13 0 0)
(-3.141908302793279e-13 0 0)
(-4.709727555179523e-13 0 0)
(-7.063271375290759e-13 0 0)
(-3.650330478399945e-13 0 0)
(-4.71071752328756e-13 0 0)
(-6.044117098491171e-13 0 0)
(-2.902570591272245e-13 0 0)
(-3.379926056836322e-13 0 0)
(-1.308352189323966e-13 0 0)
(-4.710057544549015e-13 0 0)
(-5.207574167858139e-13 0 0)
(-4.200975390203849e-13 0 0)
(-1.572769092928914e-13 0 0)
(-3.924332976823719e-13 0 0)
(-8.907403051687019e-13 0 0)
(7.563555138369781e-14 0 0)
(-5.978795106426373e-13 0 0)
(-3.629883064821607e-16 0 0)
(-3.925322944932354e-13 0 0)
(-5.117220693018157e-14 0 0)
(-3.141248324054118e-13 0 0)
(-2.90583867876292e-13 0 0)
(-1.07195257592442e-13 0 0)
(-3.367732353265792e-13 0 0)
(-1.295136711440626e-13 0 0)
(-5.769124631958807e-13 0 0)
(3.920373104388495e-13 0 0)
(-3.141578313423795e-13 0 0)
(-7.860545570949589e-14 0 0)
(-2.63991495701782e-16 0 0)
(-2.614692636225457e-13 0 0)
(-3.19173669759235e-13 0 0)
(-1.533814444222984e-13 0 0)
(-2.36411938303845e-13 0 0)
(-5.120520586712036e-14 0 0)
(-7.744890260597057e-14 0 0)
(-7.853945783562364e-14 0 0)
(-4.718323181888703e-13 0 0)
(-2.353543820111718e-13 0 0)
(-1.048821513852974e-13 0 0)
(-2.365109351147279e-13 0 0)
(-2.851720422160481e-13 0 0)
(-7.844046102476107e-14 0 0)
(-3.932928603533186e-13 0 0)
(-2.753224559022663e-14 0 0)
(-2.342308278445322e-13 0 0)
(-4.431765184321162e-13 0 0)
(4.420859632024144e-13 0 0)
(-9.402609749410147e-13 0 0)
(2.733425196843926e-14 0 0)
(-2.354863777589697e-13 0 0)
(-3.138938398467494e-13 0 0)
)
;

boundaryField
{
    inlet
    {
        type            zeroGradient;
    }
    outlet
    {
        type            pressureInletOutletVelocity;
        value           uniform (-3.138938398467494e-13 0 0);
    }
    frontAndBack
    {
        type            empty;
    }
}


// ************************************************************************* //
