/*--------------------------------*- C++ -*----------------------------------*\
| =========                 |                                                 |
| \\      /  F ield         | OpenFOAM: The Open Source CFD Toolbox           |
|  \\    /   O peration     | Version:  v2012                                 |
|   \\  /    A nd           | Website:  www.openfoam.com                      |
|    \\/     M anipulation  |                                                 |
\*---------------------------------------------------------------------------*/
FoamFile
{
    version     2.0;
    format      ascii;
    class       volScalarField;
    location    "0.0105";
    object      p;
}
// * * * * * * * * * * * * * * * * * * * * * * * * * * * * * * * * * * * * * //

dimensions      [1 -1 -2 0 0 0 0];


internalField   nonuniform List<scalar> 
1000
(
101339.0598477514
101336.4551412305
101343.1467507127
101348.3918971172
101354.21039201
101359.4831675125
101364.0646177223
101367.975656497
101371.2491620253
101373.4193137646
101374.0623374299
101374.0415694253
101373.6779669785
101372.6627902755
101370.6999533362
101367.7128518998
101363.8058931629
101359.1569637118
101353.9165030374
101348.1849009851
101342.0414646915
101335.5752879729
101328.8960797828
101322.130145884
101315.4126667574
101308.8796654123
101302.653302236
101296.8136111677
101291.3714757643
101286.3060592699
101281.7645490214
101278.398571313
101276.9728967593
101276.8186417306
101276.8785379163
101277.1573219505
101277.9127221696
101279.3924939996
101281.798057758
101285.2173472641
101289.6021329044
101294.7945820718
101300.5906454627
101306.8014139898
101313.2810994292
101319.9195139608
101326.619502246
101333.2806270274
101339.7998464614
101346.0911982948
101352.1140522377
101357.8730279021
101363.3214743486
101368.102927397
101371.3386941029
101372.4848853222
101372.5727989121
101372.5314197504
101372.2863966767
101371.6651123337
101370.4459835977
101368.4329738268
101365.484205225
101361.5495091195
101356.6842944135
101351.0366316252
101344.8097616351
101338.2149852449
101331.4356937088
101324.6150620685
101317.8609542389
101311.2496822004
101304.8204386494
101298.576289541
101292.5252586465
101286.8081051042
101281.9485137471
101278.911213814
101277.9718553058
101277.9120166735
101277.973158605
101278.1930092026
101278.7620032959
101279.8570840662
101281.6614191096
101284.3211369104
101287.9188594322
101292.4517405825
101297.8275960518
101303.8812222883
101310.4053793236
101317.1874440225
101324.0430836078
101330.8388651079
101337.4988729494
101343.9977861181
101350.3436337777
101356.5318808894
101362.4132695375
101367.4345059479
101370.5939018951
101371.5900663683
101371.655726204
101371.6249736598
101371.4335747713
101370.9557781182
101370.0158171309
101368.4460572031
101366.0956969036
101362.8571659477
101358.6869781238
101353.6206691646
101347.7741954746
101341.3272769092
101334.4921741694
101327.4778630871
101320.4578873012
101313.5460910556
101306.7874594509
101300.1792607558
101293.7441319022
101287.6887885785
101282.6543273512
101279.6501255357
101278.778689948
101278.7260506084
101278.7744330198
101278.9495408949
101279.4049459156
101280.2855994542
101281.7492889299
101283.9376742196
101286.9590353984
101290.8686202277
101295.6551144069
101301.2361679815
101307.464968169
101314.1500285582
101321.0875615539
101328.0979634964
101335.053143034
101341.8858441385
101348.5759852934
101355.0955055446
101361.2638613273
101366.4921828699
101369.7729821855
101370.8325474756
101370.9160472474
101370.8948880487
101370.747730879
101370.3721010545
101369.6189916585
101368.3420479119
101366.3992335469
101363.6718401154
101360.0807543175
101355.602621276
101350.2805175827
101344.2237281614
101337.5948766814
101330.5866403942
101323.3908726479
101316.1650394363
101309.0092764242
101301.9761626602
101295.1390175214
101288.7520198795
101283.4956601189
101280.3797154807
101279.464697739
101279.4036191473
101279.4403030456
101279.5790138055
101279.9491337786
101280.6746459521
101281.894467943
101283.7405740755
101286.3257605077
101289.7281343819
101293.9781006042
101299.0492700863
101304.8554424666
101311.2576357708
101318.0837498378
101325.1568978556
101332.323247912
101339.4707042365
101346.5281182112
101353.420174425
101359.930034016
101365.4517019316
101368.9704085957
101370.1683096582
101370.2820518698
101370.2690645651
101370.157350686
101369.859749458
101369.2464922663
101368.1882962377
101366.5541167138
101364.2254368483
101361.1085925643
101357.1488733083
101352.3424809045
101346.7421095171
101340.4541594768
101333.6274703262
101326.4327216043
101319.034001177
101311.5639501711
101304.125183907
101296.8478522396
101290.0425236907
101284.4414228838
101281.0928034622
101280.0731005432
101279.993673701
101280.0214119186
101280.1305654933
101280.4329613761
101281.0371117119
101282.0674216843
101283.6459821795
101285.8835908403
101288.8676567625
101292.6513891605
101297.2443454193
101302.6059104766
101308.645687309
101315.2339747223
101322.2203773139
101329.4551235763
101336.8077602245
101344.1727737857
101351.4340218889
101358.3379946469
101364.2547944671
101368.1350596567
101369.5560657441
101369.7216525386
101369.7154082286
101369.6304328184
101369.3945709524
101368.892048589
101368.0071288298
101366.6187500311
101364.6123209768
101361.8890581247
101358.3774615612
101354.0440585906
101348.9005808565
101343.0061492964
101336.463638864
101329.4078900442
101321.9853990235
101314.3342708379
101306.5842229639
101298.9058299433
101291.6520648911
101285.59610022
101281.8580995794
101280.6352758107
101280.5198857495
101280.5399038231
101280.6240091945
101280.8712472155
101281.3777846661
101282.255765109
101283.6175640644
101285.5695645712
101288.2026003184
101291.5829334708
101295.7433447788
101300.6757453234
101306.3286606962
101312.612084293
101319.4085700332
101326.5877636519
101334.0215491642
101341.590423766
101349.1541407828
101356.4388130553
101362.8107396072
101367.1854086573
101368.9548810162
101369.2123523404
101369.2124386803
101369.1498918288
101368.9639561486
101368.5513019422
101367.8074544087
101366.6206932186
101364.881690906
101362.4907093708
101359.367096063
101355.4584748119
101350.747786359
101345.2575843317
101339.0507637188
101332.224853065
101324.8987927419
101317.1991674101
101309.2618851241
101301.2746741598
101293.6043771382
101287.0316530709
101282.7519252
101281.1929668206
101281.0062555014
101281.0190582791
101281.0802384592
101281.2790111498
101281.7015611886
101282.451075471
101283.6315634374
101285.3441296783
101287.6794173379
101290.7103822828
101294.4844881612
101299.0165916631
101304.2852033342
101310.2338287992
101316.7766991606
101323.8078517104
101331.2123531723
101338.8715888124
101346.6388450463
101354.2421766798
101361.0753590861
101366.0465465107
101368.3126926903
101368.7328505734
101368.7419593364
101368.6993789897
101368.5565977707
101368.2207827431
101367.5965152798
101366.5798455586
101365.0670063201
101362.9597994127
101360.1732653883
101356.6432000192
101352.3325151701
101347.2364176659
101341.3854975587
101334.8438161097
101327.701079948
101320.0645934774
101312.0629542992
101303.8817971604
101295.8738109024
101288.7843496235
101283.8465867823
101281.79080349
101281.4684505324
101281.4731177288
101281.5139326991
101281.6704412867
101282.0191937772
101282.6566885174
101283.6802221345
101285.1861481359
101287.2636735669
101289.9889341036
101293.4184088198
101297.5827713179
101302.4828757524
101308.08883502
101314.3421888101
101321.161347755
101328.4494291579
101336.0974782052
101343.9643384225
101351.7972985442
101359.0465808879
101364.6609940749
101367.5719536018
101368.260060552
101368.291426804
101368.2660100763
101368.1609299781
101367.8928011274
101367.3730271584
101366.5040471355
101365.1870160014
101363.3262559059
101360.8352986644
101357.6428443683
101353.6982750925
101348.9769900337
101343.4845346095
101337.2569414507
101330.3569000731
101322.8702520052
101314.9109443351
101306.6498436953
101298.4059285937
101290.8535857787
101285.2012814551
101282.4825585681
101281.9227072176
101281.9078667926
101281.9329970938
101282.0524619596
101282.3359573114
101282.8740972076
101283.7588667674
101285.0825822221
101286.9326161165
101289.3866883327
101292.5070968956
101296.3352284396
101300.887952553
101306.1559841516
101312.1035742316
101318.6706612873
101325.7783168684
101333.3315035921
101341.2027211095
101349.1677968437
101356.7490140449
101362.9870691424
101366.6635484183
101367.7712102194
101367.8638371778
101367.8463394363
101367.7737690112
101367.5630867665
101367.1343454283
101366.3947187236
101365.2499090024
101363.6068534188
101361.3787987212
101358.4900533477
101354.8809004713
101350.5126448309
101345.371774623
101339.4716350405
101332.8517148873
101325.5772428502
101317.744074428
101309.5012272693
101301.1248023742
101293.1995672464
101286.8489217096
101283.3354207204
101282.395281914
101282.3342518953
101282.3489564498
101282.4350425443
101282.659415978
101283.1072579057
101283.8662528432
101285.0256577201
101286.671327268
101288.8815682101
101291.7222363696
101295.2421906456
101299.4699877918
101304.4115522907
101310.048698125
101316.3399045899
101323.223721179
101330.6198326535
101338.4161437866
101346.4204090929
101354.2339415471
101361.0236914382
101365.5245572303
101367.2228544053
101367.4459822092
101367.4381466059
101367.3901224295
101367.2287584203
101366.8797965019
101366.2548088031
101365.2635134776
101363.8153448897
101361.8237885699
101359.2104827371
101355.9096378638
101351.8724449817
101347.0709405142
101341.5007488126
101335.1825422126
101328.163113471
101320.5195777103
101312.3772302053
101303.9680417834
101295.7808303783
101288.8052614963
101284.4119344369
101282.9113137177
101282.747052575
101282.7545825323
101282.8132164741
101282.9877169879
101283.3569171029
101284.0049302504
101285.0175488589
101286.4784215643
101288.465358671
101291.0466176488
101294.2772752677
101298.1958600116
101302.8213765723
101308.1511533168
101314.1602996365
101320.8025614258
101328.0099771923
101335.6833813998
101343.6584460509
101351.6090252741
101358.8276650773
101364.1101834585
101366.5170617616
101366.9656595626
101366.9703776315
101366.9240456175
101366.808656583
101366.5543596079
101366.0722559468
101365.2676035411
101364.0441252485
101362.307714742
101359.9704891107
101356.956287755
101353.2068557906
101348.686647649
101343.3850102733
101337.3167238609
101330.5214619295
101323.0655294043
101315.059351582
101306.6937616964
101298.3738504048
101290.954823791
101285.7415468456
101283.4837766556
101283.0514114797
101283.0268236018
101283.0086360704
101283.0747376781
101283.2901197547
101283.7434927773
101284.5311992527
101285.7539111048
101287.5062814317
101289.8693033317
101292.9052275752
101296.6544136233
101301.1341081181
101306.3391032207
101312.242551862
101318.7974904323
101325.9385395619
101333.5731369197
101341.5573171111
101349.6310432609
101357.2066366996
101363.1263603763
101366.4545804123
101367.4936420331
101367.5965163845
101367.5736214108
101367.4839932213
101367.2671988032
101366.857381528
101366.1756405569
101365.1171353905
101363.5686534141
101361.4289672501
101358.6178303636
101355.0758401018
101350.7635425223
101345.6626335511
101339.7778139184
101333.137047481
101325.7950510525
101317.8532717686
101309.4913276506
101301.0324884162
101293.1623972594
101287.1434405353
101283.9200383336
101282.9341821104
101282.8530285662
101282.8713167211
101282.9756612244
101283.2255105956
101283.674369244
101284.3947292088
101285.4831636938
101287.0418758156
101289.1627610321
101291.9199159901
101295.3664009773
101299.5323260334
101304.4245560404
101310.0279714659
101316.307963405
101323.2110015421
101330.6524648084
101338.4940242384
101346.5124461912
101354.2747798769
101360.8496914861
101365.0814018028
101366.8303051238
101367.1163174122
101367.0864004853
101367.0149771071
101366.8209997815
101366.4509406352
101365.8422226161
101364.9085621688
101363.5470455546
101361.6549258461
101359.1399522242
101355.9255538534
101351.9551554793
101347.1958754512
101341.6405089007
101335.3075971111
101328.243307526
101320.5364694356
101312.3449875313
101303.9331277974
101295.8184950135
101289.0602832378
101284.8888674874
101283.2759766522
101283.0275442954
101283.0622906394
101283.1496029606
101283.3801945105
101283.7944724981
101284.4523806332
101285.4369607891
101286.8423003307
101288.7578359906
101291.2619293264
101294.4189894611
101298.275197279
101302.8541528646
101308.1548376216
101314.152043148
101320.7977740866
101328.0165040638
101335.686902657
101343.6168751231
101351.4720841655
101358.5459154871
101363.6496690609
101366.1708250822
101366.7794179151
101366.7953536786
101366.7253990779
101366.5505497145
101366.2208741569
101365.676927948
101364.8447420592
101363.6305765615
101361.9366958
101359.6712693495
101356.751431639
101353.1076101311
101348.6903738508
101343.4759382402
101337.4691206453
101330.7052230142
101323.2581228101
101315.2631217991
101306.9457407132
101298.7052987598
101291.3680412248
101286.2492936412
101283.8920226653
101283.3440196563
101283.3430651692
101283.4218680557
101283.6260325843
101283.9993204029
101284.5942809176
101285.4836460234
101286.7547005275
101288.4928324547
101290.7753309546
101293.6702919905
101297.2330641228
101301.5005967011
101306.486855232
101312.1803647315
101318.5445200724
101325.5159396994
101332.9886119945
101340.7928286932
101348.6637069415
101356.0779411865
101361.9691050802
101365.3273694801
101366.4611410251
101366.5724261569
101366.4986027733
101366.35038503
101366.0548999219
101365.5657670516
101364.8203944209
101363.7329278273
101362.209886559
101360.1609213839
101357.5014693769
101354.156049522
101350.0647916857
101345.1900343082
101339.5214075648
101333.0790995706
101325.9187661389
101318.1511057066
101309.9708197609
101301.6980052067
101293.9679278114
101287.9881917241
101284.7809092147
101283.761328999
101283.668874352
101283.7490921037
101283.9146140612
101284.2495568111
101284.7870855776
101285.5884117351
101286.7352671341
101288.3114237018
101290.393580991
101293.0508059029
101296.3426940503
101300.3143137806
101304.9910432559
101310.3749261577
101316.4428285184
101323.1447277039
101330.3937689288
101338.0466588955
101345.8800937055
101353.485904066
101360.0096718019
101364.2554120341
101366.0453277189
101366.3531359101
101366.3116212891
101366.1787976929
101365.9146855461
101365.4756435621
101364.8062322438
101363.8313081553
101362.4610463067
101360.6065359692
101358.1838433206
101355.1146042661
101351.3314698047
101346.7861879797
101341.4556507216
101335.3456427261
101328.494922794
101320.9892298963
101312.9889556225
101304.7609068918
101296.7975290918
101290.0943983561
101285.9284886212
101284.3115867443
101284.0332571744
101284.0821904052
101284.2246838595
101284.5224758934
101285.0082598008
101285.7333684984
101286.7706957809
101288.2011463686
101290.1012565772
101292.5413305243
101295.5840181426
101299.2796629665
101303.661312554
101308.7409939897
101314.5069807245
101320.9225575979
101327.9206341494
101335.3831774043
101343.1163567813
101350.8008916312
101357.7889635034
101362.918101149
101365.4519321295
101366.1382623915
101366.1609647538
101366.0391718188
101365.8078723098
101365.4065581507
101364.7969634127
101363.9154652097
101362.6791140609
101361.0013174826
101358.7971528881
101355.9848922637
101352.4916665553
101348.2615136655
101343.2614173441
101337.4853420098
101330.9575427296
101323.7403840165
101315.9603792517
101307.8428761489
101299.7756737098
101292.5336657772
101287.40913125
101285.0564999658
101284.4452246317
101284.425103008
101284.5497974885
101284.8059709851
101285.2498907992
101285.9123146098
101286.8557255252
101288.1559741841
101289.888110961
101292.1240072617
101294.9309471025
101298.3655512907
101302.4671934902
101307.2545041878
101312.723790523
101318.8482617045
101325.5754155963
101332.8118649712
101340.3987624508
101348.0796688321
101355.3566879907
101361.23939218
101364.6480951882
101365.8630693001
101366.019427003
101365.9343448479
101365.7337872028
101365.3660532252
101364.8025646604
101363.9941643187
101362.8692484082
101361.3455740181
101359.3397396597
101356.7683585555
101353.5517904982
101349.623443094
101344.9397045907
101339.4857601988
101333.276949833
101326.3610365124
101318.8367717714
101310.8876573156
101302.8217202055
101295.2374117851
101289.2751874067
101286.0202185998
101284.9535350506
101284.7973956377
101284.879897754
101285.0937827817
101285.4968512334
101286.1098932986
101286.9817953195
101288.1763909801
101289.7614786992
101291.8067873397
101294.3841900065
101297.5606784558
101301.3874509063
101305.892520268
101311.0785551598
101316.9233519446
101323.3813082804
101330.3765183526
101337.7788868254
101345.3757898591
101352.789356781
101359.2450071205
101363.5823734687
101365.4305883749
101365.8580829988
101365.8570953132
101365.6951067945
101365.371375933
101364.8434396455
101364.0829742178
101363.036241835
101361.6359335373
101359.8062956226
101357.4628193097
101354.5173760563
101350.8902662299
101346.5229827644
101341.3868575323
101335.4879166067
101328.8677312839
101321.6085133668
101313.8609506371
101305.8816673986
101298.1300056044
101291.5190278613
101287.2825010005
101285.6074598715
101285.2400203179
101285.210643459
101285.3715695507
101285.7164831905
101286.285515225
101287.1073749023
101288.2296024088
101289.7054320584
101291.5926760802
101293.9590497314
101296.8793422002
101300.4223819758
101304.6361862397
101309.5387196924
101315.115035108
101321.3199907105
101328.081931724
101335.2877681926
101342.7566324569
101350.1971470474
101357.0164776535
101362.151513548
101364.8083906388
101365.6117882611
101365.7322989138
101365.6657193047
101365.4192551627
101364.9513128445
101364.2332299895
101363.2292144713
101361.8972684992
101360.1874372788
101358.0338152358
101355.3497589842
101352.0374471971
101348.0091810448
101343.2089125255
101337.624367284
101331.2899961573
101324.2839306338
101316.7403201724
101308.8809906846
101301.0686721358
101294.0200888265
101288.9291793998
101286.4583746911
101285.7634989585
101285.6486246769
101285.698318168
101285.9368643224
101286.4133651082
101287.1696143282
101288.2445680645
101289.669732551
101291.4713664367
101293.6851709397
101296.3710491684
101299.6116358351
101303.492361508
101308.0734291213
101313.3680497873
101319.3346018484
101325.8881194881
101332.9111700428
101340.239173485
101347.6385836627
101354.6717479267
101360.4366730198
101363.9556256331
101365.2756873617
101365.5136702234
101365.5381955275
101365.4078120299
101365.078602214
101364.4865009405
101363.5713815229
101362.28215928
101360.5902643574
101358.4828871481
101355.9390823948
101352.9082632673
101349.2998616774
101344.9835125918
101339.8189213537
101333.7367714472
101326.8596417932
101319.4058603541
101311.9132791272
101303.2927840305
)
;

boundaryField
{
    inlet
    {
        type            uniformFixedValue;
        uniformValue    sine;
        uniformValueCoeffs
        {
            frequency       constant 3000;
            scale           constant 50;
            level           constant 101325;
        }
        value           uniform 101326.3578702043;
    }
    outlet
    {
        type            pressureOutletNSCBC;
        pInf            101325;
        gamma           1.4;
        etaAc           1;
        fieldInf        1;
        lInf            2.25;
        value           uniform 101299.5252996471;
    }
    frontAndBack
    {
        type            empty;
    }
}


// ************************************************************************* //
