/*--------------------------------*- C++ -*----------------------------------*\
| =========                 |                                                 |
| \\      /  F ield         | OpenFOAM: The Open Source CFD Toolbox           |
|  \\    /   O peration     | Version:  v2012                                 |
|   \\  /    A nd           | Website:  www.openfoam.com                      |
|    \\/     M anipulation  |                                                 |
\*---------------------------------------------------------------------------*/
FoamFile
{
    version     2.0;
    format      ascii;
    class       volScalarField;
    location    "0.0105";
    object      pMean;
}
// * * * * * * * * * * * * * * * * * * * * * * * * * * * * * * * * * * * * * //

dimensions      [1 -1 -2 0 0 0 0];


internalField   nonuniform List<scalar> 
1000
(
101325.5033773108
101325.4983265868
101325.4869584221
101325.4776215263
101325.4590838599
101325.4380502644
101325.4114658102
101325.3842157488
101325.3535661347
101325.3216236921
101325.2883455494
101325.2547212698
101325.2212401479
101325.1881513637
101325.1560760167
101325.1256108058
101325.0974546247
101325.0721657464
101325.0501907157
101325.0319754425
101325.0177591972
101325.0078788119
101325.0024554233
101325.0016667609
101325.005474784
101325.0138613008
101325.0266200431
101325.0435609683
101325.0643698894
101325.0888277604
101325.1166376504
101325.1473309059
101325.179809339
101325.2128326364
101325.2458480533
101325.2787731439
101325.3113442023
101325.3432228192
101325.3737979776
101325.4024666171
101325.4284976923
101325.4513296326
101325.4704143081
101325.4854451658
101325.4961220631
101325.5023389206
101325.5039639903
101325.5010285134
101325.4935424882
101325.4816802769
101325.4655594159
101325.4454058188
101325.421345732
101325.3937129818
101325.3631341626
101325.3309484257
101325.2983283932
101325.2657401627
101325.2332285149
101325.2010004285
101325.1693599663
101325.1387805684
101325.109833024
101325.0831901485
101325.0594918607
101325.0393504569
101325.0232267326
101325.0114760707
101325.0042864357
101325.0017580252
101325.0038748158
101325.0105870194
101325.0217753667
101325.0373294376
101325.0571066859
101325.0809699089
101325.108570074
101325.1390784743
101325.1710475187
101325.2033337803
101325.2355939468
101325.2677913359
101325.2997028289
101325.3311146937
101325.3615388518
101325.3905265453
101325.4173914088
101325.4415701214
101325.4623684437
101325.4793345389
101325.4919830022
101325.5001317984
101325.5035755053
101325.5023787176
101325.4965246594
101325.4861942547
101325.4714137989
101325.4523575976
101325.4290768125
101325.4019878659
101325.3718697232
101325.3402536126
101325.308252876
101325.2762959517
101325.2443836873
101325.2127037978
101325.1814648907
101325.1510586482
101325.1219316314
101325.0946748555
101325.0698808356
101325.0482076561
101325.0302044204
101325.0163901149
101325.0070815223
101325.0025236616
101325.0027490058
101325.0077738482
101325.0174717187
101325.031783178
101325.0505660828
101325.0737012896
101325.1007558647
101325.1307797433
101325.1622119418
101325.1939442047
101325.2256470119
101325.2573116586
101325.2887334113
101325.3197691925
101325.3499915869
101325.3790566693
101325.4063428666
101325.4313603392
101325.4534068485
101325.4719978592
101325.4865391245
101325.4967301103
101325.502227797
101325.502995472
101325.4989341691
101325.4901870748
101325.476754189
101325.4588179626
101325.4364362623
101325.4100783902
101325.3805653899
101325.3494975946
101325.3180062688
101325.2865585538
101325.2551275605
101325.2238915721
101325.1929928095
101325.1627814708
101325.1336042997
101325.1060010466
101325.0804806847
101325.0576916736
101325.0381793422
101325.0225420039
101325.0111871556
101325.0045053091
101325.0026468467
101325.005755123
101325.0137655557
101325.0266781631
101325.0443359322
101325.0666158483
101325.0929989258
101325.1224852339
101325.1534221022
101325.1846941304
101325.2159317883
101325.2471533806
101325.2781669001
101325.3088749043
101325.338899589
101325.3679618839
101325.39550595
101325.4210988665
101325.4440764974
101325.4639609803
101325.4801172758
101325.492177967
101325.499684895
101325.5024952333
101325.5003850547
101325.4934227483
101325.4815368099
101325.464901773
101325.4435710876
101325.4180484044
101325.3891803177
101325.3586181258
101325.3275681901
101325.2965538857
101325.2655373152
101325.2346867603
101325.2040960434
101325.1740815905
101325.1449198651
101325.1171008967
101325.0910647604
101325.067428891
101325.0467082967
101325.0295339289
101325.0163540487
101325.0076660608
101325.0037212532
101325.0047969119
101325.0109271223
101325.0222056116
101325.0385117809
101325.0597423867
101325.0853376281
101325.1142465395
101325.1447261513
101325.1755908405
101325.2064264904
101325.2372585218
101325.2679144645
101325.2983248493
101325.3281559022
101325.3571744223
101325.3848807657
101325.4108942415
101325.434591768
101325.455520287
101325.4730377185
101325.4867432367
101325.4961059947
101325.5008945907
101325.5007767447
101325.4957223036
101325.4855737819
101325.470448875
101325.4503703242
101325.4258307264
101325.3976812096
101325.3676203033
101325.3369703312
101325.3063388521
101325.2756930547
101325.2451868704
101325.2148819027
101325.1850634315
101325.1559548599
101325.1280050945
101325.1015919544
101325.0772991543
101325.0556024985
101325.0371366561
101325.0223657864
101325.0118510289
101325.0059226106
101325.0049683502
101325.0091260678
101325.0185956802
101325.0333278353
101325.0532758491
101325.0778930462
101325.1061260647
101325.1361456505
101325.1666433624
101325.1971185685
101325.2276051725
101325.2579362293
101325.2880769896
101325.3177143887
101325.3466681726
101325.3744721339
101325.4008021268
101325.4250672267
101325.4468514407
101325.4655176877
101325.4806558319
101325.491692667
101325.4983323599
101325.5001582076
101325.4970457438
101325.4887499761
101325.4753102668
101325.4566919602
101325.4333306363
101325.4060350572
101325.3765136674
101325.346241532
101325.3159560791
101325.285648074
101325.255457615
101325.2254223969
101325.1957982899
101325.1667705936
101325.1387450723
101325.112055434
101325.087242469
101325.0647507051
101325.0451950529
101325.0290472948
101325.0168954009
101325.0091315197
101325.0062193043
101325.0083963034
101325.0159536593
101325.0289385651
101325.0473751638
101325.0707963129
101325.0981958181
101325.1277147437
101325.1578574147
101325.1880062017
101325.2181680146
101325.2482045678
101325.2780862679
101325.3075422285
101325.3364093987
101325.3642752143
101325.3908394081
101325.4155650513
101325.4380521757
101325.4576970626
101325.4740772631
101325.4866115315
101325.4949505176
101325.4986240839
101325.4974235622
101325.4910289585
101325.4793963896
101325.4624181317
101325.4404428294
101325.4141760001
101325.3852836903
101325.3553908485
101325.3254309378
101325.2954377653
101325.2655462033
101325.2357670297
101325.2063383625
101325.1774063196
101325.1493484622
101325.1224512578
101325.0972259818
101325.074074747
101325.0535990301
101325.0362536037
101325.0226493639
101325.0132043304
101325.0084493849
101325.0086863993
101325.0143003723
101325.0254160204
101325.0421578978
101325.0641555831
101325.090534968
101325.1194576531
101325.1492465627
101325.1790815662
101325.208940045
101325.2386903897
101325.2683262489
101325.2975951616
101325.3263664295
101325.3542563481
101325.3810011966
101325.406097531
101325.4291752646
101325.4496548829
101325.467119748
101325.480987334
101325.4908758867
101325.4962803098
101325.4969231379
101325.4924289795
101325.4826681644
101325.4674686089
101325.4470596196
101325.4220205052
101325.3938830556
101325.3644077891
101325.3347552044
101325.3050697292
101325.2754612719
101325.2459381721
101325.2167020382
101325.1878862594
101325.1598227634
101325.1327792273
101325.1072173694
101325.0835231954
101325.0622573229
101325.0438760916
101325.0289758346
101325.0180092468
101325.0115298616
101325.009908915
101325.0135845208
101325.0227722094
101325.0376737084
101325.0580540505
101325.0831991196
101325.1113955236
101325.1407973814
101325.1703336649
101325.1998966326
101325.2293725401
101325.2587636673
101325.2878445697
101325.3165048918
101325.3443923647
101325.3712714613
101325.3966702436
101325.4202473521
101325.4414449358
101325.4598627651
101325.474916719
101325.4862168286
101325.4932246843
101325.4956268683
101325.4929878794
101325.4851250045
101325.4717845713
101325.4531009424
101325.4294774501
101325.4022735933
101325.3732748894
101325.3439340023
101325.3145365628
101325.2852072806
101325.2559332014
101325.2268979744
101325.1982100438
101325.1701739705
101325.1430272925
101325.1172004708
101325.093050248
101325.0711107526
101325.0518217153
101325.0357712573
101325.0234214432
101325.0153460412
101325.0119570668
101325.0137411148
101325.0209814876
101325.0339582859
101325.0525645614
101325.0762760837
101325.1035742649
101325.1325251155
101325.1617604342
101325.1910314112
101325.2202357768
101325.2493776865
101325.278265997
101325.306797795
101325.3346612015
101325.3616322634
101325.3872818076
101325.4112791322
101325.4331042501
101325.4523578072
101325.4684784969
101325.4810570669
101325.4895539503
101325.4936119233
101325.4927715376
101325.486785882
101325.4753526479
101325.4584952126
101325.4364660411
101325.4103827991
101325.3819776093
101325.3529550946
101325.3238423193
101325.2947836358
101325.2657603483
101325.2369301963
101325.2083867327
101325.1804024044
101325.1531941809
101325.1271576913
101325.1026279313
101325.0801080469
101325.060023625
101325.042946195
101325.0293417149
101325.0197908982
101325.0147345782
101325.0146929063
101325.0200028378
101325.0310111289
101325.0477271101
101325.0698203406
101325.0960205424
101325.1244189333
101325.1533425789
101325.1823307558
101325.2112664693
101325.2401603897
101325.2688501548
101325.2972424288
101325.3250593452
101325.3520897869
101325.3779398834
101325.4022915298
101325.4246569398
101325.4446435757
101325.4617122367
101325.4754471439
101325.4853135883
101325.4909298558
101325.4918188966
101325.487683242
101325.4781801527
101325.463223303
101325.4429268265
101325.4181703182
101325.390498974
101325.3618283769
101325.3329560752
101325.3041212679
101325.2753019245
101325.2466537458
101325.2182586176
101325.1903674447
101325.1631681877
101325.1370546747
101325.1122898701
101325.0893754152
101325.0686912795
101325.0507788091
101325.0360371099
101325.0251241486
101325.0184590974
101325.0165758126
101325.0198923879
101325.0288340694
101325.0435081805
101325.0637002289
101325.0884757516
101325.1160874839
101325.1446102679
101325.1733098401
101325.2019083889
101325.2304277332
101325.2586737828
101325.2866846235
101325.3140924942
101325.3407564697
101325.3663240228
101325.3905842723
101325.413004204
101325.4333294099
101325.4510923107
101325.4657525189
101325.4769309418
101325.4841348563
101325.4870087386
101325.4849548299
101325.4777836038
101325.4652788881
101325.4473690359
101325.424701939
101325.3988091522
101325.3711967325
101325.3431943858
101325.3152285058
101325.2872888684
101325.2594285534
101325.2318474148
101325.2047815321
101325.1782916853
101325.1527157187
101325.1283810095
101325.1056671823
101325.0848854924
101325.0666962943
101325.0513259354
101325.0394884806
101325.0315766953
101325.0282284136
101325.0297312554
101325.0367014633
101325.0492249202
101325.0673672553
101325.0902297789
101325.1165375557
101325.1443018215
101325.172465829
101325.2006392379
101325.2287195976
101325.2566096909
101325.2841956629
101325.311377104
101325.3378702994
101325.363388773
101325.3877023468
101325.4104232346
101325.4310776819
101325.4494381289
101325.4648965066
101325.4769848359
101325.4853673701
101325.4895097104
101325.4890261487
101325.4834898368
101325.4727330409
101325.4566457614
101325.4355500422
101325.4106304201
101325.383620458
101325.3556696401
101325.3278287222
101325.2999160679
101325.2721669954
101325.2444605872
101325.2173541321
101325.1907388589
101325.1649741864
101325.1402673656
101325.1171758004
101325.0957247198
101325.0767681759
101325.0604637321
101325.0474081065
101325.0381575285
101325.0331591416
101325.0329784271
101325.0379547394
101325.0484218384
101325.0644909115
101325.0856506633
101325.1106341684
101325.1378422064
101325.1655431301
101325.193470382
101325.2213074399
101325.2489870065
101325.2763990693
101325.303457373
101325.329929586
101325.3555220317
101325.3799879172
101325.4030231416
101325.4241447028
101325.4430947576
101325.4594196712
101325.4725090431
101325.482077765
101325.4875742736
101325.4887395548
101325.4848947984
101325.4760234822
101325.4618374886
101325.4426106934
101325.4189436347
101325.3927694413
101325.3652737353
101325.3375594586
101325.309916037
101325.2823571818
101325.2547815197
101325.2276699376
101325.2010907444
101325.1752303956
101325.1503490479
101325.1268769052
101325.1050977247
101325.0853978429
101325.0683638709
101325.0543072625
101325.0438046085
101325.0374380759
101325.0355795047
101325.0387617836
101325.0472921428
101325.0613545721
101325.080732813
101325.1044091346
101325.1307776652
101325.1582516932
101325.1857666136
101325.2135062125
101325.2410237251
101325.2682969674
101325.295282041
101325.3218038679
101325.3474825159
101325.3721670718
101325.3954607454
101325.4171562514
101325.4365700391
101325.4536861281
101325.4678250829
101325.478509037
101325.4853850214
101325.4880143531
101325.4859690449
101325.4789062924
101325.4666773488
101325.4493280321
101325.4272993431
101325.4020045836
101325.3751422009
101325.3476889024
101325.3203074869
101325.2929623731
101325.2656269645
101325.238596896
101325.2120431067
101325.1861393107
101325.1611427158
101325.1373668344
101325.1152866976
101325.0949753427
101325.0772742293
101325.0624229901
101325.0507922689
101325.0431147311
101325.0397648286
101325.0412744023
101325.0479119988
101325.0600648792
101325.0775613101
101325.0998530815
101325.1252122585
101325.1522975143
101325.1796431637
101325.2070211667
101325.2344671374
101325.2616600606
101325.2885284694
101325.3150579538
101325.3408715058
101325.3657467438
101325.3893449019
101325.4114665559
101325.4314761948
101325.4493428384
101325.4643517532
101325.476153941
101325.4842833292
101325.4884186067
101325.4880020956
101325.4827466682
101325.4724376132
101325.4569954473
101325.4367309825
101325.4125882007
101325.3863956678
101325.359456006
101325.3322048422
101325.3052276842
101325.2781812663
101325.25118174
101325.2247495167
101325.198884158
101325.17379426
101325.1498228889
101325.1273739508
101325.1067102971
101325.0883437204
101325.0726375376
101325.0601343648
101325.0512070561
101325.0465451389
101325.0463419544
101325.0513059155
101325.0615344349
101325.0771772982
101325.0978430345
101325.122250962
101325.1486446754
101325.1758295859
101325.202987529
101325.230237455
101325.2574094904
101325.2841020774
101325.3107276993
101325.3366273161
101325.3616852438
101325.3855916489
101325.4080729421
101325.428759287
101325.447131764
101325.4630134465
101325.4759529939
101325.48527881
101325.4907958055
101325.4919581212
101325.4885000321
101325.4799924504
101325.4665181683
101325.4480353882
101325.4254164986
101325.3999347926
101325.3734898681
101325.3467155028
101325.3198220135
101325.2932110476
101325.2663792384
101325.2401025499
101325.2142516392
101325.1891155361
101325.1650099829
101325.1422287677
101325.1212807074
101325.1021844878
101325.0858909099
101325.0725351208
101325.0624565767
101325.0564512712
101325.0549281886
101325.0580997241
101325.0665233343
101325.0803226214
101325.0992604003
101325.1225093149
101325.1481917144
101325.175020712
101325.2021398225
101325.2290074172
101325.2562329201
101325.2829010221
101325.3093098255
101325.3353955565
101325.3606457223
101325.3848432234
101325.4076886148
101325.4289297882
101325.4479135482
101325.464720514
101325.4784951451
101325.4890145686
101325.4958414597
101325.4986393924
101325.4967149069
101325.4901165182
101325.4784861864
101325.4619191185
101325.4408502089
101325.4165039026
101325.3904605039
101325.3641315811
101325.3376199344
101325.3111396498
101325.2848822226
101325.2583622402
101325.2328018419
101325.207643717
101325.1834221818
101325.1604005712
101325.1390706285
101325.1195695047
101325.1025907091
101325.0882919094
101325.0774573466
101325.0700982109
101325.0672314704
101325.068755514
101325.0755348555
101325.0874208624
101325.1046556319
101325.1264500602
101325.1515120681
101325.177749184
101325.2046661483
101325.2316008271
101325.2582891664
101325.285314899
101325.3113530749
101325.3376903975
101325.3630753175
101325.3874987685
101325.4107328935
101325.4324093329
101325.4521731879
101325.4694583613
101325.4842739882
101325.495962447
101325.503924256
101325.5081396928
101325.5081163783
101325.5031361877
101325.4933824169
101325.4786927938
101325.4593250872
101325.4362703051
101325.4109120514
101325.3849089598
101325.3588660504
101325.332564979
101325.3067139808
101325.2806045301
101325.2547830509
101325.2298403782
101325.2055287496
101325.1823261113
101325.1606269273
101325.1408276672
101325.1230169543
101325.108226811
101325.0963621882
101325.0880131857
101325.083687152
101325.0839932394
101325.088773024
101325.099034657
101325.1144053968
101325.1346889397
101325.1587112531
101325.1847335977
101325.2111408232
101325.2379692545
101325.2647242671
101325.2912399237
101325.3179877101
101325.3433813459
101325.3693340381
101325.3940689173
101325.4176138647
101325.439798326
101325.4601729931
101325.4781684202
101325.4938836174
101325.5064114542
101325.5158379598
101325.5211245939
101325.5226666642
101325.5196261171
101325.511680872
101325.4988486034
101325.4812837662
101325.4595847748
101325.43528418
101325.4095361323
101325.3837715205
101325.3580953242
101325.3320560821
101325.3069975724
101325.2808729016
101325.2562377195
101325.2319307072
101325.2084237745
101325.1864613557
101325.1662205464
101325.1479996297
101325.1322212363
101325.1197045362
101325.1104883179
101325.1048370992
101325.1036224738
101325.1071860033
101325.1153686597
101325.1290662654
101325.1476531914
101325.1704531228
101325.1958639058
101325.2223036714
101325.2487236564
101325.2753987257
101325.3020095852
101325.3281801741
101325.3547530213
101325.3791951125
101325.4046896245
101325.4287351686
101325.4513393966
101325.47243752
101325.4911345922
101325.5074585446
101325.5211955942
101325.5315289309
101325.5383472816
101325.5410350663
101325.5398222604
101325.5335933309
101325.5228397539
101325.507060423
101325.4869924278
101325.4636714473
101325.4386802557
101325.4130667218
101325.387519052
101325.362191825
101325.3364956959
101325.3122943297
101325.2863660757
101325.2628188366
101325.2394299468
101325.216755337
101325.1965315991
101325.1772080038
101325.161021631
101325.147575596
101325.1374634433
101325.1312526735
101325.1283933807
101325.1302979441
101325.1371555511
101325.1491157415
)
;

boundaryField
{
    inlet
    {
        type            calculated;
        value           uniform 101325.5052227262;
    }
    outlet
    {
        type            calculated;
        value           uniform 101325.1584677917;
    }
    frontAndBack
    {
        type            empty;
    }
}


// ************************************************************************* //
