/*--------------------------------*- C++ -*----------------------------------*\
| =========                 |                                                 |
| \\      /  F ield         | OpenFOAM: The Open Source CFD Toolbox           |
|  \\    /   O peration     | Version:  v2012                                 |
|   \\  /    A nd           | Website:  www.openfoam.com                      |
|    \\/     M anipulation  |                                                 |
\*---------------------------------------------------------------------------*/
FoamFile
{
    version     2.0;
    format      ascii;
    class       volScalarField;
    location    "0.0105";
    object      rho;
}
// * * * * * * * * * * * * * * * * * * * * * * * * * * * * * * * * * * * * * //

dimensions      [1 -3 0 0 0 0 0];


internalField   nonuniform List<scalar> 
1000
(
1.176538910372408
1.176515522690919
1.17656809651779
1.176609661622439
1.176658319798668
1.176702663463913
1.176740110216141
1.176771198523359
1.176796946482924
1.176813855801777
1.176818525768885
1.17681785883744
1.176814399480185
1.176805781701619
1.176789438489842
1.176764661069602
1.176732363903314
1.176694010751042
1.176650801927843
1.176603531594312
1.176552831980079
1.17649942412555
1.17644420535245
1.176388215647849
1.176332573879644
1.17627841112716
1.176226748031393
1.176178259272116
1.176133047707193
1.176090952848565
1.176053207264121
1.176025225777248
1.176013353867595
1.176012045750729
1.176012530312948
1.176014852947754
1.176021148201126
1.176033452096974
1.176053431815044
1.176081815339169
1.176118199337258
1.176161272672547
1.176209342724903
1.176260843663923
1.17631456808318
1.176369604292397
1.176425148809803
1.176480370745903
1.176534417158741
1.176586576140854
1.176636511113646
1.176684260180414
1.176729435888011
1.176769082235835
1.176795913623739
1.176805419902327
1.176806151070963
1.176805810143477
1.176803779665561
1.176798627825855
1.176788518978713
1.176771828123872
1.176747378904251
1.176714755356605
1.176674416751958
1.176627590497645
1.176575961391998
1.176521281105378
1.176465069986496
1.176408515031176
1.17635251054661
1.176297689305866
1.176244376356303
1.17619259721544
1.176142418532951
1.176095007711369
1.176054707792343
1.176029519580684
1.176021729416459
1.176021233103934
1.176021740115919
1.176023563351431
1.176028282053431
1.176037363544114
1.176052326771471
1.17607438346639
1.176104218630086
1.176141808424595
1.176186388115994
1.176236587460978
1.176290687696057
1.176346925524645
1.176403772356485
1.176460121764736
1.176515344316736
1.176569230127231
1.17662184584085
1.176673153925887
1.17672191695741
1.17676354777586
1.1767897418808
1.176798000888515
1.176798545252778
1.176798290277775
1.176796703416039
1.176792742090846
1.176784949039306
1.176771934395188
1.176752447807581
1.17672559728332
1.176691022072203
1.176649016535539
1.176600541789263
1.176547087659944
1.176490413869025
1.176432253020743
1.17637404404829
1.176316730962019
1.176260686844689
1.176205889117214
1.176152525571554
1.17610231053458
1.176060560711944
1.17603564717546
1.176028420408052
1.176027983865223
1.176028385089801
1.176029837243247
1.176033613888301
1.176040917085622
1.176053055323606
1.176071203306031
1.176096258863631
1.176128679971619
1.176168372561396
1.176214653456293
1.17626630493059
1.176321738869989
1.176379265259349
1.1764373947366
1.176495065177784
1.176551718957716
1.176607189633654
1.176661244616979
1.176712387099743
1.17675573497943
1.176782935691909
1.17679172036531
1.176792412639814
1.176792237202815
1.176791017139513
1.176787902853582
1.176781658944606
1.176771071984893
1.1767549643183
1.17673235164568
1.176702577883973
1.176665449176426
1.176621322404625
1.176571103381534
1.17651614020277
1.176458030233509
1.176398364119041
1.176338447485978
1.176279110669392
1.176220789712999
1.176164092687186
1.176111127529449
1.176067537661142
1.176041697508497
1.176034109328295
1.17603360279783
1.176033907004216
1.176035057311369
1.176038126683187
1.176044143291896
1.176054259147612
1.176069568651687
1.176091007117664
1.176119222131011
1.176154465632364
1.176196518537466
1.17624466575005
1.176297754503813
1.176354357469032
1.176413007718887
1.176472429601221
1.176531693622523
1.176590209873095
1.176647353944016
1.176701328097332
1.176747108254697
1.176776281501326
1.176786213110604
1.176787156119352
1.176787048431354
1.176786122215583
1.176783654843446
1.176778570415931
1.176769797051271
1.176756248238296
1.176736941292812
1.176711099529379
1.1766782691635
1.176638418469333
1.176591984068076
1.176539847867879
1.176483243694809
1.176423586539131
1.176362236834535
1.176300294361032
1.176238610006187
1.176178263062223
1.176121829070382
1.176075380485226
1.176047610853736
1.176039154541858
1.176038495849641
1.176038725867214
1.176039631054273
1.176042138788434
1.176047148944104
1.176055693186067
1.176068783965623
1.176087340044528
1.176112086178949
1.176143463457255
1.176181550921951
1.176226011515564
1.176276095352827
1.176330726649657
1.176388658081801
1.176448647582119
1.176509613357579
1.176570680490254
1.176630886009595
1.17668812809954
1.17673718448913
1.176769355473836
1.176781136837675
1.17678250968272
1.176782457898003
1.176781753363543
1.176779797858091
1.176775631509334
1.176768294747091
1.176756783837947
1.176740148662921
1.176717570119109
1.176688455256742
1.176652526352734
1.176609880427935
1.176561007388668
1.176506759923366
1.176448255801522
1.176386709507905
1.176323266036257
1.176259000922301
1.176195328603126
1.176135176211778
1.176084955747462
1.176053957118446
1.176043816364261
1.176042859434417
1.176043025430786
1.176043722894028
1.176045773205677
1.176049973862026
1.176057254845956
1.176068548048674
1.176084735637993
1.17610657079348
1.176134602879101
1.176169103554034
1.176210005513429
1.176256881647741
1.176308985320851
1.176365342390349
1.17642487173428
1.176486510864489
1.176549268792191
1.176611982618728
1.176672381515478
1.176725211626642
1.176761481800679
1.1767761522871
1.176778286938207
1.176778287642233
1.176777769060092
1.176776227483917
1.176772806216381
1.176766639061764
1.176756799740856
1.176742381789079
1.17672255821035
1.176696660199015
1.176664253334994
1.176625195959944
1.176579674809949
1.176528211081573
1.176471613140994
1.176410866930998
1.176347021842315
1.176281204657157
1.176214971970541
1.176151365847253
1.176096860300671
1.176061369335729
1.17604844108484
1.17604689269936
1.17604699886238
1.176047506210868
1.176049154603628
1.176052658758871
1.176058874384762
1.176068663999319
1.176082866008319
1.176102232029238
1.176127366959958
1.17615866424929
1.176196246899235
1.176239936470125
1.176289264225321
1.176343518678822
1.176401820924606
1.176463217725507
1.176526725387386
1.176591127318305
1.176654168714533
1.176710823446725
1.176752039494535
1.176770827899253
1.176774311369225
1.176774386880172
1.176774033841829
1.176772850053292
1.176770065848167
1.176764890115343
1.176756461004345
1.176743918159298
1.176726447367637
1.176703344137997
1.176674076011462
1.176638335297267
1.176596082017336
1.17654756952803
1.176493328692808
1.176434103025312
1.17637078199185
1.176304431683202
1.176236591249503
1.176170185289176
1.176111394936052
1.17607044717793
1.176053398867007
1.176050725626954
1.176050764325388
1.176051102790193
1.17605240069189
1.176055292851423
1.176060579511179
1.176069067524735
1.176081555906341
1.176098784378114
1.176121384227112
1.176149823688952
1.176184356955594
1.176224990895111
1.176271477422229
1.176323331498668
1.176379876303647
1.176440308234505
1.176503723639828
1.176568951938139
1.176633897720617
1.176694002765859
1.176740552012294
1.176764686580125
1.176770391595613
1.176770651644329
1.176770440910942
1.176769569698537
1.176767346670606
1.176763037279948
1.176755832648596
1.176744913237307
1.176729485741429
1.176708833178798
1.176682364283562
1.176649659214889
1.176610513791517
1.176564973735616
1.176513337517766
1.176456124622639
1.176394046516509
1.176328047754067
1.17625954495216
1.176191183072165
1.176128554613319
1.176081681546413
1.176059135644653
1.176054492869018
1.176054369795481
1.176054578192716
1.176055568896027
1.176057919885444
1.176062382606861
1.176069719869231
1.176080697212804
1.176096039157497
1.176116390143813
1.176142266682916
1.176174011829656
1.176211765283941
1.176255449819239
1.176304768733716
1.176359223711897
1.176418160004427
1.176480789321915
1.176546054260254
1.176612095962415
1.176674953571447
1.176726673734026
1.176757155285353
1.176766338806268
1.1767671067635
1.17676696168862
1.176766360011735
1.176764613266766
1.176761058616628
1.176754926440112
1.176745434905407
1.176731812398296
1.176713339587762
1.176689388816441
1.176659464827498
1.176623246605185
1.176580621885001
1.176531701040384
1.176476811186042
1.17641649285511
1.176351540552268
1.176283189662282
1.176213729503746
1.176148009269132
1.176095345333072
1.176066208576508
1.176058412145979
1.176057906030435
1.176058027970877
1.176058741869461
1.176060602567964
1.176064316459078
1.176070610689787
1.176080225435093
1.17609387263676
1.176112201614905
1.176135758401919
1.176164948038299
1.176200007162441
1.176240984692186
1.176287729577251
1.176339897249221
1.176396977876488
1.176458305219204
1.176522949567423
1.176589316725044
1.1766541009915
1.176710395643799
1.176747712310958
1.176761792772847
1.176763642703126
1.176763577737731
1.1767631795728
1.176761841720026
1.176758948511664
1.176753766795066
1.176745548037136
1.17673354133544
1.176717029350635
1.176695362303153
1.176667994607808
1.176634521418008
1.176594710669003
1.176548525822588
1.176496137985844
1.17643793482353
1.176374555427806
1.176307038435265
1.176237307152952
1.176169414988204
1.176111569117726
1.17607513629162
1.176062691900065
1.176061329706186
1.176061392150478
1.176061878393168
1.176063325501884
1.176066387226032
1.176071761099841
1.176080158571655
1.176092273295615
1.176108750486141
1.176130156106961
1.176156946780022
1.176189441855803
1.176227798739547
1.176271995047783
1.176321824120769
1.176376902133948
1.176436665268526
1.176500290995257
1.176566416548987
1.176632337608196
1.176692188639727
1.176735986200719
1.176755941520079
1.17675966080886
1.176759699926006
1.176759315791861
1.176758359112738
1.176756250760651
1.176752253680933
1.176745582365478
1.176735438565597
1.176721042009159
1.176701663991136
1.176676672955594
1.176645585755518
1.176608107477774
1.176564149548742
1.176513834229107
1.176457490154965
1.176395666774565
1.176329279401768
1.176259910178426
1.17619091812021
1.176129395219677
1.176086162943509
1.176067439689553
1.176063854153704
1.176063650250423
1.17606349942418
1.176064047596256
1.176065833730194
1.176069593486259
1.176076125808797
1.176086265531396
1.176100797551962
1.176120393457007
1.176145569367959
1.176176659824183
1.176213807655138
1.176256969446603
1.176305922312866
1.176360276540019
1.176419489710764
1.176482794034892
1.176548995562819
1.176615938060124
1.176678748973279
1.176727829803596
1.176755423952974
1.176764038722098
1.176764891642869
1.176764701823527
1.176763958726782
1.176762161309008
1.176758763557814
1.176753111307414
1.176744335318476
1.176731496919958
1.176713756779588
1.176690449476705
1.176661082360657
1.176625328126359
1.176583034774939
1.176534241000645
1.176479178346724
1.176418300164405
1.176352447297801
1.176283108851855
1.176212965281998
1.176147702330768
1.176097789020953
1.176071058027784
1.176062882481402
1.176062209488103
1.17606236115018
1.176063226465148
1.176065298430563
1.176069020749329
1.176074994580142
1.176084020772293
1.176096946844557
1.176114534808444
1.176137399037487
1.176165979414139
1.176200525458047
1.176241093885082
1.176287559071445
1.176339633757256
1.176396873774683
1.176458577166179
1.176523596689671
1.176590081215147
1.176654440973763
1.17670895439922
1.176744039533771
1.176758539581589
1.176760910885955
1.176760662849364
1.176760070685749
1.176758462437492
1.176755394310308
1.176750347479647
1.176742606563498
1.176731318285092
1.176715630726133
1.176694778956304
1.176668128003902
1.176635208630967
1.176595747993226
1.176549686088445
1.176497176343937
1.176438601225295
1.176374696941755
1.176306772521869
1.176237019084176
1.176169728781851
1.176113685410188
1.176079092881124
1.176065717465629
1.17606365725661
1.176063945405192
1.176064669474919
1.176066581735697
1.176070017278196
1.176075473202302
1.176083638147929
1.176095292338146
1.176111177405859
1.176131943108106
1.176158123458893
1.176190101267531
1.17622807204547
1.176272027113912
1.176321757172949
1.176376863952869
1.176436720901583
1.176500321704274
1.176566073378747
1.176631203710304
1.176689854150954
1.176732169618306
1.176753072428504
1.176758118228299
1.176758250353033
1.176757670368269
1.176756220706841
1.176753487392188
1.176748977574091
1.1767420779727
1.176732011376316
1.176717967424481
1.176699184686901
1.176674976021402
1.176644764451049
1.176608139941578
1.176564905044782
1.176515099412571
1.176459015425568
1.176397265310828
1.176330970650589
1.176262001228069
1.1761936682173
1.17613282346134
1.176090375154376
1.176070826784494
1.176066282288879
1.176066274376922
1.176066927881158
1.176068620986263
1.176071716600291
1.17607665050536
1.176084025845721
1.176094566437306
1.176108980346578
1.176127908450193
1.176151915352996
1.17618145990846
1.176216848348191
1.176258196266782
1.176305408259777
1.176358180513516
1.176415987177483
1.1764779489411
1.176542658407367
1.176607919170071
1.176669392399348
1.176718236597331
1.176746079940782
1.176755479973929
1.176756402634174
1.176755790574934
1.176754561715102
1.176752111868736
1.176748056499959
1.176741876657992
1.176732860515937
1.176720232998831
1.176703244969032
1.176681195228165
1.176653457832397
1.17661953621829
1.176579117903576
1.176532116638225
1.176478699499974
1.176419327629362
1.176354918583184
1.176287086543907
1.176218485661323
1.176154383908465
1.176104795958835
1.176078198713237
1.1760697435237
1.176068976817264
1.176069642054535
1.176071014703921
1.176073792326565
1.176078249955262
1.176084895199474
1.176094405830051
1.176107476518887
1.176124743264096
1.176146778736707
1.176174077027302
1.17620701171479
1.176245793052878
1.176290437755924
1.176340753727518
1.176396325892652
1.176456433776304
1.176519888976509
1.17658483978119
1.176647901882532
1.176701991388645
1.176737192932607
1.176752033050118
1.176754585071042
1.176754240880712
1.176753139654723
1.176750949920084
1.176747309849375
1.176741759795156
1.176733676736919
1.176722315915729
1.176706940130879
1.176686853414474
1.176661405937683
1.17663003915092
1.176592352788327
1.176548155005656
1.176497493473455
1.17644068923734
1.176378452887199
1.176312114074087
1.176243884983538
1.176177849120506
1.176122262669154
1.176087715904186
1.176074307269011
1.176071999135723
1.176072404936019
1.17607358661605
1.176076056154721
1.176080084669832
1.176086097852481
1.176094700184879
1.176106562567842
1.176122319655139
1.176142554390411
1.176167786208508
1.176198432451584
1.176234766991359
1.176276889347295
1.176324702031657
1.176377900325106
1.176435927634534
1.176497804990179
1.176561925015397
1.17662564032668
1.1766835798311
1.17672610584643
1.176747113790618
1.176752804117757
1.176752992347125
1.176751982577723
1.176750064892857
1.176746737621098
1.176741683501237
1.176734375031972
1.176724124464354
1.176710213827082
1.176691938967304
1.176668622182685
1.17663965917674
1.176604585780186
1.176563128020306
1.176515235581675
1.176461109266026
1.176401265849972
1.176336754046881
1.176269442200631
1.176202545940375
1.17614249123167
1.176099995070792
1.176080485241959
1.176075416055763
1.176075249196624
1.176076283273239
1.17607840767695
1.176082089018777
1.176087582363856
1.176095405863185
1.176106188509984
1.176120552643381
1.176139094215503
1.176162371104722
1.176190852725086
1.176224865425915
1.176264563503113
1.176309916103172
1.176360700813288
1.17641648201078
1.176476485074231
1.176539392662812
1.176603078371411
1.176663414020934
1.176712188169295
1.176740449754243
1.176750523053055
1.176751819409804
1.176751114004996
1.176749451201122
1.176746402343086
1.176741730487679
1.176735028070149
1.176725701412342
1.176713068612374
1.176696438140032
1.176675118555538
1.176648449441286
1.17661587851198
1.176577043966973
1.176531822719843
1.176480341668986
1.176422996528466
1.176360605805703
1.176294690817508
1.176227805617371
1.176164912860016
1.176115470298731
1.176088477696059
1.176079631918117
1.176078337088721
1.176079021269472
1.176080794985026
1.17608413755595
1.176089221387018
1.176096451875754
1.176106358364856
1.176119503061165
1.176136464159658
1.176157837608693
1.176184178841346
1.176215912280082
1.176253270041002
1.176296274037472
1.176344739906762
1.17639828924679
1.176456292387362
1.176517670371353
1.176580660042201
1.176642128293051
1.17669565312966
1.17673161441354
1.176746937914401
1.176750482250135
1.176750474066469
1.176749131037882
1.176746447008201
1.176742069915846
1.176735764925546
1.17672708648774
1.176715476523072
1.176700306918872
1.176680876947332
1.176656455832239
1.176626382635989
1.176590172079653
1.176547586233982
1.176498674787384
1.176443782123629
1.176383589603804
1.176319346428027
1.17625318034842
1.176188900345072
1.176134078286734
1.176098946042083
1.176085055318747
1.176082008221494
1.176081764609571
1.176083099144213
1.17608595944834
1.176090678312259
1.176097493808994
1.176106800164756
1.176119038814065
1.176134689138599
1.176154312619807
1.176178529369099
1.176207910028297
1.176242852616682
1.176283505903001
1.176329745706238
1.176381197448094
1.176437266706102
1.176497015515451
1.176558943997474
1.17662063612677
1.176677176667133
1.176719751667362
1.176741779823165
1.176748440759134
1.17674943990934
1.176748887906972
1.17674684449382
1.17674296481206
1.176737011217917
1.176728686949662
1.176717643784595
1.176703467515085
1.176685611665641
1.176663357793045
1.176635894734906
1.176602495202982
1.176562694275225
1.176516389918174
1.176463867481886
1.176405774490679
1.176343222991434
1.176278052139072
1.176213269683758
1.176154819183136
1.176112602033734
1.176092112294049
1.176086349841127
1.176085397210711
1.176085809306282
1.17608778751864
1.176091739042904
1.176098010462785
1.176106924819643
1.176118743361083
1.176133683799345
1.176152042127445
1.176174315006366
1.176201187565514
1.176233368082441
1.176271355604499
1.176315259485341
1.1763647343925
1.176419075616581
1.17647730930578
1.176538070734111
1.176599423339755
1.176657738227074
1.17670553674931
1.176734712725754
1.176745657043452
1.176747629582769
1.176747831904182
1.176746748578308
1.176744014267473
1.176739096361849
1.176731497908259
1.176720805547019
1.176706799251651
1.176689378468092
1.176668338915849
1.176643197416835
1.176613167235192
1.176577244507898
1.176534473230448
1.176484525017279
1.176428489337607
1.176367434876315
1.176303737922766
1.176226646789962
)
;

boundaryField
{
    inlet
    {
        type            calculated;
        value           uniform 1.176427481426743;
    }
    outlet
    {
        type            calculated;
        value           uniform 1.17619284340278;
    }
    frontAndBack
    {
        type            empty;
    }
}


// ************************************************************************* //
