/*--------------------------------*- C++ -*----------------------------------*\
| =========                 |                                                 |
| \\      /  F ield         | OpenFOAM: The Open Source CFD Toolbox           |
|  \\    /   O peration     | Version:  v2012                                 |
|   \\  /    A nd           | Website:  www.openfoam.com                      |
|    \\/     M anipulation  |                                                 |
\*---------------------------------------------------------------------------*/
FoamFile
{
    version     2.0;
    format      ascii;
    class       volScalarField;
    location    "0.0105";
    object      T;
}
// * * * * * * * * * * * * * * * * * * * * * * * * * * * * * * * * * * * * * //

dimensions      [0 0 0 1 0 0 0];


internalField   nonuniform List<scalar> 
1000
(
300.0091908346992
300.0074433924405
300.013847527008
300.0187762473968
300.0235932291175
300.0278945499591
300.0319077614947
300.0355575734233
300.0386818101562
300.0407937598594
300.0415062953652
300.0416148681611
300.0414206941005
300.0406132069964
300.0389705178759
300.0364465345354
300.0331170267556
300.029135195259
300.0246401825172
300.0197265577885
300.0144677867214
300.0089436790965
300.0032501500347
299.9974959061812
299.9917958558903
299.9862643313378
299.9810028214974
299.9760763322589
299.9714909424997
299.9672259534216
299.9634029761307
299.9605709263132
299.9593765182507
299.959253304082
299.9593071083909
299.9595403812617
299.9601720036798
299.961416433661
299.9634449442024
299.9663322040963
299.9700381270957
299.9744295555246
299.9793337766947
299.9845906148287
299.9900762160133
299.9956967630669
300.0013694636976
300.0070088289906
300.0125273144611
300.0178520060419
300.0229485031898
300.0278208228169
300.0324297234767
300.0364738592053
300.0392101477157
300.0401788926599
300.0402526775178
300.0402171277796
300.0400096072173
300.0394842601613
300.0384532551544
300.0367506443558
300.0342563578086
300.0309278567566
300.0268119145554
300.0220337215769
300.0167651763106
300.0111850313684
300.0054484569681
299.999676618327
299.9939608150287
299.9883656526541
299.9829243237285
299.9776394413612
299.9725178100189
299.9676785886288
299.9635650953683
299.9609940494568
299.9601988945485
299.9601482585616
299.9602000255555
299.96038612733
299.9608677745127
299.9617947576395
299.9633221169707
299.9655735237016
299.9686188735269
299.9724556968682
299.9770058925151
299.9821295566236
299.9876512233007
299.9933908981334
299.9991925597699
300.0049432882682
300.0105788544172
300.0160778500921
300.0214470876487
300.0266827474457
300.0316585719651
300.0359065163532
300.0385792710778
300.0394219848461
300.039477532164
300.0394515199432
300.0392896080901
300.0388854138776
300.0380902432367
300.0367622737987
300.0347739113638
300.0320341177365
300.0285060507572
300.0242197065539
300.0192731146734
300.0138182614294
300.0080346881608
300.0020991870967
299.9961585992146
299.9903092705756
299.9845892873326
299.9789963556052
299.9735496527729
299.9684241732882
299.9641626374203
299.9616195852431
299.9608819068612
299.9608373488362
299.960878307334
299.9610265401924
299.961412045961
299.9621575243746
299.9633965345923
299.965248973416
299.9678064673586
299.9711157352025
299.9751671383091
299.979890902618
299.9851626955588
299.9908203904008
299.9966914760257
300.0026239378749
300.0085093793447
300.0142908997331
300.0199515229649
300.0254675243327
300.0306861791518
300.035109349011
300.0378848241521
300.0387811768057
300.0388518158952
300.038833918635
300.0387094322546
300.0383916655569
300.0377545625844
300.0366743056824
300.0350307218262
300.0327233600345
300.0296852501887
300.0258965773995
300.0213937170936
300.0162690572111
300.0106601239016
300.0047298932957
299.9986406728445
299.992525700045
299.9864697188304
299.980517239291
299.9747303344894
299.969324176826
299.9648748398985
299.9622372126401
299.9614626463272
299.9614109451996
299.96144200122
299.9615594241438
299.9618727349927
299.9624868844153
299.963519460554
299.965082166178
299.9672704585837
299.9701504169744
299.9737477269098
299.9780399885241
299.9829541713139
299.9883725763522
299.9941494914036
300.0001351773954
300.0061994321344
300.0122473941429
300.0182188664389
300.0240501380328
300.0295577765326
300.034229157765
300.0372059166993
300.0382193021813
300.0383155260765
300.0383045424822
300.0382100404782
300.0379582828688
300.0374394892317
300.0365442860332
300.0351618026249
300.0331917567777
300.0305548779615
300.0272048347829
300.023138354055
300.0183999478492
300.0130795665644
300.0073030785144
300.0012148515509
299.9949537011283
299.9886318564364
299.9823361571026
299.9761767656727
299.9704165802722
299.9656754685755
299.9628409001662
299.9619777215289
299.9619104892353
299.9619339731892
299.962026376061
299.9622823578118
299.9627937733698
299.9636659274574
299.9650021596955
299.9668962412239
299.9694221331079
299.972624833218
299.9765123767613
299.9810503219474
299.986162089217
299.9917378402524
299.997650238337
300.0037724960909
300.0099941966404
300.0162260473671
300.0223697807339
300.0282109304446
300.0332166460165
300.0364993000464
300.0377014308079
300.0378415140333
300.037836235162
300.0377643530815
300.03756482444
300.0371397080487
300.0363910908826
300.0352165501857
300.0335191294234
300.0312152341238
300.0282443379267
300.0245780713896
300.0202262969059
300.0152389638399
300.00970304241
300.003732560024
299.9974514248024
299.9909764661431
299.9844174382093
299.9779186991995
299.9717790257834
299.9666529391831
299.9634887847982
299.962453668396
299.9623559931425
299.9623729414814
299.9624441406779
299.9626534304662
299.9630822154832
299.9638254220706
299.9649781680143
299.9666304914802
299.9688592583892
299.9717205231764
299.9752419865451
299.9794167441293
299.9842011626854
299.9895189960847
299.9952707827437
300.0013461514041
300.0076366437858
300.0140411104626
300.0204408713283
300.0266042044473
300.0319950283225
300.0356959723091
300.0371929025056
300.0374107171945
300.0374107932453
300.0373578844345
300.037200590976
300.0368514990832
300.0362222239378
300.0352182470981
300.0337470684102
300.0317242911801
300.0290816530874
300.0257748001931
300.0217892441197
300.0171440002558
300.0118922107519
300.0061163239537
299.9999169158885
299.9934010472494
299.9866836892605
299.9799236962786
299.9734315633751
299.9678681304123
299.9642454420929
299.962925793726
299.962767744737
299.9627785846105
299.9628303767881
299.9629986397181
299.9633563281948
299.9639907874283
299.9649900549592
299.9664397037177
299.9684164429253
299.9709819992396
299.9741765089277
299.9780124963447
299.9824717122693
299.987506274862
299.9930435270335
299.9989937292921
300.0052595640897
300.0117406159159
300.0183127143513
300.0247457613549
300.0305269001669
300.0347325374407
300.0366496517167
300.0370050951142
300.037012803058
300.0369767839368
300.0368559970868
300.036571907695
300.0360437928093
300.0351837089749
300.0339038623308
300.0321211630155
300.0297637108333
300.0267771522072
300.0231300609813
300.0188183214702
300.0138677454847
300.0083324611715
300.0022882991641
299.9958259905333
299.9890543013449
299.9821302927322
299.9753524558846
299.9693517196637
299.9651720621499
299.9634318631466
299.9631589937437
299.9631629460678
299.9631974981447
299.9633299836176
299.9636252014661
299.9641648354738
299.9650312420347
299.9663059745553
299.9680645301851
299.9703713321979
299.9732741541696
299.9767989149562
299.9809462827379
299.9856908985193
299.9909832166953
299.9967541193017
300.0029215539141
300.0093932653091
300.0160497684889
300.0226772192079
300.0288104915632
300.0335603570084
300.0360229878914
300.0366051102401
300.0366316465627
300.0366101463035
300.036521252756
300.036294423027
300.0358547058361
300.0351195635836
300.0340053683528
300.0324311655457
300.0303237831851
300.0276228706297
300.0242855618544
300.0202909892727
300.0156437794242
300.0103743460007
300.0045356551751
299.9982002671078
299.9914645359464
299.9844730059265
299.977495612553
299.9711031835269
299.96631874819
299.9640173929959
299.9635434831464
299.9635309217574
299.9635521957585
299.9636533230481
299.9638933000294
299.9643488297112
299.9650977732498
299.9662182682625
299.9677842618432
299.969861522317
299.972502753956
299.9757429494149
299.9795963382639
299.9840550030827
299.9890886216879
299.9946462934375
300.0006611540067
300.0070527154916
300.0137130346421
300.0204523957618
300.0268666141908
300.0321441637511
300.0352544418231
300.0361915007263
300.0362698616347
300.0362550597384
300.0361936677493
300.0360154355856
300.0356527288583
300.0350270161043
300.0340585178714
300.0326684942788
300.0307835359101
300.0283395817571
300.0252860738851
300.0215902264151
300.0172405475338
300.0122482582245
300.0066466933134
300.0004909661047
299.9938621117214
299.9868861692085
299.9797967627439
299.9730888320937
299.9677133579851
299.9647392619666
299.9639434439708
299.9638917830076
299.9639042309248
299.9639771025537
299.9641670324405
299.9645461247386
299.9651886008552
299.9661700101069
299.9675630170412
299.9694338900535
299.9718383493443
299.9748177176134
299.9783961221257
299.9825785235617
299.9873494675695
299.9926737456321
299.9984992819913
300.0047580408532
300.0113551044466
300.0181277562715
300.0247386521497
300.0304830415971
300.0342907883
300.035727519854
300.0359162814385
300.0359096529914
300.0358690258905
300.0357325151548
300.0354372993137
300.0349085682893
300.0340699410396
300.0328447922535
300.0311599175641
300.0289490011576
300.0261563527312
300.0227406356835
300.0186781367849
300.0139650880075
300.0086189051596
300.0026791004589
299.9962108453327
299.9893200928196
299.982203100361
299.9752735661471
299.9693692253597
299.9656504182664
299.9643801641859
299.9642411189187
299.9642474930941
299.9642971261446
299.9644448384693
299.9647573605659
299.9653058914263
299.9661630487807
299.9673996315968
299.9690814908714
299.971266383541
299.9740009001
299.9773176132909
299.981232559813
299.9857434200625
299.9908290619906
299.9964502696026
300.0025494575573
300.0090426419715
300.0157907168374
300.0225176939626
300.0286250461972
300.0330941325502
300.0351303268783
300.0355098322865
300.0355138236697
300.0354746275285
300.0353770101575
300.0351618784479
300.0347540243545
300.0340732946647
300.0330382341295
300.0315692185242
300.0295918807035
300.0270417603192
300.0238695333455
300.020045075578
300.0155593108506
300.0104246714758
300.0046746461077
299.9983652567826
299.991589867479
299.9845099092418
299.9774681923348
299.9711886017751
299.9667757909789
299.9648646337926
299.9644986421238
299.9644778287047
299.9644624331164
299.9645183869814
299.964700704257
299.9650844760582
299.9657512520805
299.966786243273
299.9682695600418
299.9702697419307
299.9728394537868
299.9760128193939
299.9798043879322
299.9842096930676
299.989205946305
299.9947533302051
300.0007964427932
300.0072568844049
300.014012772823
300.0208440430335
300.027253479133
300.0322616973658
300.0350773511365
300.035956377215
300.0360434066105
300.0360240378457
300.0359482140203
300.0357648096833
300.0354181105602
300.034841366006
300.0339458781528
300.0326358614918
300.0308256624033
300.0284473670948
300.0254506839987
300.0218021855722
300.0174863249851
300.0125070077265
300.0068878140565
300.0006749573348
299.9939541975978
299.9868774645542
299.9797183022831
299.9730570393623
299.9679623223394
299.965233796738
299.9643992829991
299.9643305871402
299.9643460675877
299.9644343936728
299.9646458874431
299.965025838334
299.9656356074046
299.9665569374812
299.9678763323693
299.9696715638051
299.9720053283993
299.9749225057781
299.9784485382428
299.9825891822522
299.9873315781381
299.9926463656316
299.99848816909
300.0047853050169
300.0114206536249
300.0182052786667
300.0247728510223
300.0303354781831
300.0339155252093
300.0353950738906
300.0356370343954
300.0356117247787
300.0355513016938
300.0353872002851
300.0350741356756
300.0345591666726
300.0337692949889
300.0326174497222
300.031016695053
300.0288889662361
300.026169452785
300.0228102478437
300.0187834765101
300.0140829752563
300.0087243540941
300.002746592581
299.9962247708741
299.9892924361121
299.9821731804983
299.9753050741537
299.9695847141408
299.9660537559928
299.9646884716477
299.96447817616
299.9645075879158
299.9645814962276
299.964776688662
299.9651273679602
299.9656842731333
299.96651769359
299.9677072648955
299.9693286803221
299.9714482506564
299.9741204668557
299.9773843795625
299.9812599150018
299.9857461518819
299.9908216878915
299.9964458318091
300.0025545947522
300.0090452359804
300.0157551569524
300.0224014446893
300.0283862882008
300.0327041462464
300.0348370255227
300.0353518844404
300.0353653651334
300.0353061840192
300.0351582642924
300.0348793636887
300.0344191909823
300.0337151661085
300.0326879802779
300.0312549394959
300.0293383384108
300.0268680462722
300.0237851662921
300.0200478283065
300.0156358465392
300.0105532228357
300.004829744613
299.9985278385945
299.9917619180521
299.9847227713848
299.9777483293581
299.9715379648864
299.9672051810845
299.9652098049971
299.9647459280078
299.9647451191667
299.9648118235878
299.9649846453966
299.9653006270784
299.9658042484193
299.9665570719407
299.9676329760675
299.9691042289683
299.971036236827
299.9734866156702
299.9765021812284
299.9801141642426
299.984334330691
299.989152905115
299.9945388376
300.000438416237
300.0067618591629
300.0133655016429
300.0200251808178
300.0262981433104
300.0312822391378
300.0341233311668
300.0350824863713
300.0351766307927
300.0351141762328
300.0349887857759
300.0347388096719
300.0343250086906
300.0336944277659
300.0327744301815
300.0314859233063
300.0297524577272
300.0275024708994
300.0246720727793
300.0212105675191
300.017086034782
300.0122896318971
300.0068383612845
300.0007792312865
299.9942058308674
299.9872828553977
299.9802811647489
299.9737384443951
299.9686769548381
299.9659620888312
299.9650990322269
299.9650207696782
299.9650886715058
299.9652287821213
299.9655123048203
299.9659673112126
299.9666456121067
299.9676163862692
299.9689505354208
299.9707129691237
299.9729621287882
299.975748429589
299.9791099796291
299.9830682098472
299.9876247910616
299.9927600773375
299.9984316629776
300.0045659748955
300.0110416928396
300.0176698209816
300.0241049948395
300.0296243848341
300.0332163211474
300.0347305730457
300.0349909731038
300.0349558512577
300.0348434831793
300.034620047475
300.0342486227878
300.0336823050822
300.0328575194399
300.031698267301
300.0301293184804
300.0280796460833
300.0254829256511
300.0222821397571
300.0184364142946
300.013926134911
300.0087561216598
300.0029590876425
299.9966074992293
299.9898370081337
299.9828733558205
299.9761333138158
299.9704596174878
299.966933345004
299.9655646743943
299.9653290724542
299.9653704921382
299.9654911084195
299.96574318257
299.9661543873588
299.9667681718713
299.9676462342454
299.9688570504306
299.9704653938001
299.9725307558992
299.9751061410809
299.9782341272063
299.9819426417388
299.9862418101138
299.9911216449606
299.9965510050693
300.0024730426263
300.0087878078243
300.0153312326391
300.0218331412047
300.0277454587468
300.0320848153603
300.0342284276446
300.0348090536116
300.0348282580488
300.0347252209857
300.0345295433825
300.0341900356445
300.0336743225534
300.0329285759627
300.031882615057
300.030463172801
300.0285983887078
300.0262190964277
300.0232636135293
300.0196845486586
300.0154539105019
300.0105665233107
300.0050428316268
299.9989355231049
299.9923515750764
299.9854816283366
299.9786538594383
299.9725241656494
299.9681865200083
299.9661950873624
299.9656776553982
299.9656606213718
299.9657661705713
299.9659830145257
299.9663587814991
299.9669195044006
299.9677180694936
299.9688186756497
299.9702848401948
299.972177383858
299.9745532368577
299.9774602944241
299.9809318430899
299.9849836020226
299.9896123875215
299.994795460876
300.0004883214845
300.0066118733181
300.0130316420861
300.0195306067058
300.0256875057086
300.0306644721753
300.0335482497825
300.0345761054098
300.0347083807176
300.0346364008485
300.0344667297045
300.0341556295884
300.0336789217807
300.0329950163007
300.0320433315969
300.030754281979
300.0290572963333
300.0268818086151
300.024160412557
300.0208367285496
300.0168738063613
300.0122590473836
300.0070053570252
300.0011530699462
299.9947856691299
299.9880583728828
299.9812318232938
299.9748125375791
299.9697659183365
299.9670107123757
299.9661077912568
299.9659756216593
299.9660454561486
299.9662265025007
299.9665676881258
299.9670866094917
299.9678246438444
299.9688358188745
299.970177514907
299.9719087414381
299.9740903163348
299.9767789171028
299.9800178430486
299.9838307586927
299.9882198680788
299.9931663176706
299.9986314481415
300.0045509570125
300.0108146952762
300.0172427042816
300.0235152514786
300.0289770415145
300.032646514896
300.0342100947215
300.0345717498382
300.0345709129491
300.0344338704368
300.0341599961878
300.0337133652986
300.0330700131136
300.0321844732261
300.0309997953763
300.0294518808081
300.0274692176709
300.0249772228942
300.0219084329556
300.0182133008028
300.0138675116524
300.0088760940815
300.0032741459206
299.997131154075
299.9905745624824
299.9838214961168
299.9772607044778
299.971665065427
299.9680790557572
299.96666118566
299.9663501568867
299.966325288976
299.9664615069764
299.9667534652019
299.9672351323521
299.9679308066616
299.9688807243963
299.970129939035
299.9717273752144
299.9737303345956
299.9762020989595
299.9792008949722
299.9827673231533
299.9869165370584
299.9916358265267
299.9968869229708
300.0026091215054
300.0087066610231
300.0150264463277
300.0213219109737
300.0270914930817
300.0314358659147
300.0336835872618
300.034363253746
300.034465203541
300.0344088766091
300.0342003686168
300.0338044917493
300.0331969952589
300.032347594829
300.0312207541239
300.0297742020836
300.0279521685778
300.0256813318929
300.0228789030303
300.0194706433908
300.0154090778031
300.0106837538073
300.0053237451765
299.9993950849992
299.9930112176515
299.9863598083642
299.9797478178411
299.973781899764
299.969472764203
299.967381325439
299.9667931349297
299.9666958976763
299.9667379623545
299.966939884741
299.9673432255179
299.967983358062
299.9688932522141
299.9700995702275
299.971624531157
299.9734983451579
299.975771704471
299.9785145343955
299.9817991129776
299.9856763470573
299.9901573521183
299.9952068221875
300.000752760416
300.0066956939059
300.012896273767
300.0191568550872
300.0251072010088
300.0299843457491
300.0329613470579
300.0340781816101
300.0342796567125
300.0343006640526
300.034190953284
300.0339136807492
300.0334150144182
300.0326436846107
300.0315538659266
300.0301170746638
300.0283210078839
300.0261557207475
300.0235946290143
300.0205701823097
300.0169523573438
300.0125694868277
300.0072999326321
300.0012285825177
299.9947291374077
299.9887880344854
299.9829222980703
)
;

boundaryField
{
    inlet
    {
        type            fixedValue;
        value           uniform 300;
    }
    outlet
    {
        type            temperatureOutletNSCBC;
        pInf            101325;
        gamma           1.4;
        etaAc           1;
        fieldInf        1;
        lInf            2.25;
        value           uniform 299.9803869767719;
    }
    frontAndBack
    {
        type            empty;
    }
}


// ************************************************************************* //
