/*--------------------------------*- C++ -*----------------------------------*\
| =========                 |                                                 |
| \\      /  F ield         | OpenFOAM: The Open Source CFD Toolbox           |
|  \\    /   O peration     | Version:  v2012                                 |
|   \\  /    A nd           | Website:  www.openfoam.com                      |
|    \\/     M anipulation  |                                                 |
\*---------------------------------------------------------------------------*/
FoamFile
{
    version     2.0;
    format      ascii;
    class       volVectorField;
    location    "0.0105";
    object      U;
}
// * * * * * * * * * * * * * * * * * * * * * * * * * * * * * * * * * * * * * //

dimensions      [0 1 -1 0 0 0 0];


internalField   nonuniform List<vector> 
1000
(
(0.002921147160885461 0 0)
(0.03443482382857423 0 0)
(0.04258533044960001 0 0)
(0.05763072011298566 0 0)
(0.07143293308869345 0 0)
(0.08441659638254377 0 0)
(0.09560740825216371 0 0)
(0.1051606614903238 0 0)
(0.1131778588556453 0 0)
(0.1185282125739172 0 0)
(0.1200692220512651 0 0)
(0.1199918552606099 0 0)
(0.1191402433807893 0 0)
(0.1166412397071487 0 0)
(0.1118417780683424 0 0)
(0.1045328038080067 0 0)
(0.0949727989277286 0 0)
(0.08359609276056432 0 0)
(0.07077206709873478 0 0)
(0.0567467148112414 0 0)
(0.04171202377363978 0 0)
(0.02588466772237651 0 0)
(0.009535700176966564 0 0)
(-0.007023266753922993 0 0)
(-0.02346472632501678 0 0)
(-0.03946040405065294 0 0)
(-0.05470742240361784 0 0)
(-0.06900150882191763 0 0)
(-0.08231882888512637 0 0)
(-0.09472375334612797 0 0)
(-0.1058557917561889 0 0)
(-0.114098434913285 0 0)
(-0.1175753633129574 0 0)
(-0.1179463511034163 0 0)
(-0.1178249910827304 0 0)
(-0.1171252791628122 0 0)
(-0.1152810707277379 0 0)
(-0.1116566639762212 0 0)
(-0.1057655769744376 0 0)
(-0.09739292630930579 0 0)
(-0.08665778717956803 0 0)
(-0.0739447714373011 0 0)
(-0.05975248668162719 0 0)
(-0.04454640171833741 0 0)
(-0.0286861107051787 0 0)
(-0.01243786693013122 0 0)
(0.003965390283507711 0 0)
(0.02027365414477508 0 0)
(0.03622591046884423 0 0)
(0.05161559072116011 0 0)
(0.06635822125871239 0 0)
(0.08046422010937497 0 0)
(0.09379599665711028 0 0)
(0.1054760660429453 0 0)
(0.1133880796594041 0 0)
(0.1162153394753767 0 0)
(0.1164471653871583 0 0)
(0.1163028180472163 0 0)
(0.1157296046252627 0 0)
(0.1142014841154813 0 0)
(0.1112196014973309 0 0)
(0.1062948880124192 0 0)
(0.09908002289851793 0 0)
(0.08945056264322931 0 0)
(0.07754444458124576 0 0)
(0.06372583895514458 0 0)
(0.04848851736659484 0 0)
(0.03234559827444812 0 0)
(0.0157498760072558 0 0)
(-0.0009414382708200427 0 0)
(-0.0174685945662317 0 0)
(-0.03365642845010925 0 0)
(-0.04940585907729092 0 0)
(-0.06469036761102681 0 0)
(-0.07948924589164519 0 0)
(-0.09348640880726453 0 0)
(-0.1054083362110033 0 0)
(-0.1128555712800115 0 0)
(-0.1151301315772487 0 0)
(-0.1152535282902829 0 0)
(-0.1151535233686017 0 0)
(-0.1145867965946847 0 0)
(-0.1132018082268894 0 0)
(-0.1105191272733444 0 0)
(-0.1061002309547239 0 0)
(-0.09958719070013894 0 0)
(-0.09077926617275378 0 0)
(-0.07968123510514287 0 0)
(-0.06651725577632624 0 0)
(-0.05169523080763158 0 0)
(-0.03572593308435031 0 0)
(-0.01912601296873837 0 0)
(-0.002341087775524097 0 0)
(0.01429763668016963 0 0)
(0.03059446617201282 0 0)
(0.04649166528561158 0 0)
(0.06202550241955083 0 0)
(0.0771832162960186 0 0)
(0.09157380912304371 0 0)
(0.1038396540184928 0 0)
(0.1115652549498056 0 0)
(0.1140268179963988 0 0)
(0.1142033136540262 0 0)
(0.1140845405041965 0 0)
(0.1136430303796324 0 0)
(0.1124658967093467 0 0)
(0.1101671319424569 0 0)
(0.1063267506433418 0 0)
(0.1005761685249396 0 0)
(0.09265053040658378 0 0)
(0.08244534832106273 0 0)
(0.07004925705418057 0 0)
(0.05574298986945791 0 0)
(0.03996284390171868 0 0)
(0.02323152696201037 0 0)
(0.006066021553526162 0 0)
(-0.01111264286595355 0 0)
(-0.02803531487382632 0 0)
(-0.04458893485887932 0 0)
(-0.06076456418023649 0 0)
(-0.07650665844754659 0 0)
(-0.09133265305617597 0 0)
(-0.1036785337198845 0 0)
(-0.1110420081491491 0 0)
(-0.1131548265034129 0 0)
(-0.113265964838262 0 0)
(-0.1131874070403171 0 0)
(-0.1127354998714486 0 0)
(-0.1116272201278122 0 0)
(-0.1094697898471194 0 0)
(-0.1058851112957049 0 0)
(-0.1005262883616222 0 0)
(-0.09312941768257092 0 0)
(-0.08355722147576153 0 0)
(-0.07183623038766625 0 0)
(-0.05817125925742236 0 0)
(-0.04292445151893451 0 0)
(-0.02656091547460576 0 0)
(-0.00957523876925594 0 0)
(0.007588089001739301 0 0)
(0.02460763185269167 0 0)
(0.0413238755902957 0 0)
(0.05770126414245553 0 0)
(0.07366721982770785 0 0)
(0.08875829151249838 0 0)
(0.1015343523218169 0 0)
(0.1095607939006425 0 0)
(0.11217350054032 0 0)
(0.1123892872733233 0 0)
(0.1123001549264384 0 0)
(0.1119644926148019 0 0)
(0.1110378050856406 0 0)
(0.1091962477253098 0 0)
(0.1060721562032395 0 0)
(0.1013187089832116 0 0)
(0.09464407823465248 0 0)
(0.08585622652146796 0 0)
(0.07489927306236527 0 0)
(0.06187612467139378 0 0)
(0.04705151275248652 0 0)
(0.0308261337743933 0 0)
(0.01367556123467449 0 0)
(-0.003934240200162062 0 0)
(-0.02162506760560349 0 0)
(-0.03914840956457022 0 0)
(-0.05636359164276328 0 0)
(-0.07309291468009373 0 0)
(-0.08873247365363823 0 0)
(-0.1016177686297315 0 0)
(-0.1092507633562028 0 0)
(-0.1114744685826396 0 0)
(-0.1116124407081975 0 0)
(-0.1115538174854298 0 0)
(-0.1111949673620942 0 0)
(-0.1102945522710512 0 0)
(-0.1085170393070653 0 0)
(-0.1055296680012812 0 0)
(-0.1010091354270203 0 0)
(-0.0946800099581403 0 0)
(-0.08634937438097229 0 0)
(-0.07594221366531874 0 0)
(-0.0635258798215583 0 0)
(-0.04931308482687082 0 0)
(-0.03364079814363997 0 0)
(-0.01692775915082775 0 0)
(0.0003881705648596738 0 0)
(0.01792504307860641 0 0)
(0.03541425543356188 0 0)
(0.05269142411906391 0 0)
(0.06956607010683898 0 0)
(0.08549106386057308 0 0)
(0.09898899786743935 0 0)
(0.107601660166556 0 0)
(0.1105487801732117 0 0)
(0.1108332003451607 0 0)
(0.1107709024369479 0 0)
(0.1105195977987537 0 0)
(0.1097841636686111 0 0)
(0.1082848571051079 0 0)
(0.1056959258705011 0 0)
(0.1016975587954106 0 0)
(0.09599867546890485 0 0)
(0.08837151602692607 0 0)
(0.07868310868211281 0 0)
(0.06692185977735869 0 0)
(0.05321467726502459 0 0)
(0.03782452980467205 0 0)
(0.02111860037717493 0 0)
(0.00351082730814294 0 0)
(-0.01460282811826164 0 0)
(-0.03289366197183374 0 0)
(-0.05110102187211048 0 0)
(-0.06890993431964033 0 0)
(-0.08557508443263322 0 0)
(-0.09930167711196643 0 0)
(-0.1075013624099833 0 0)
(-0.1099842014630963 0 0)
(-0.110171141301791 0 0)
(-0.110129282417476 0 0)
(-0.109844696064702 0 0)
(-0.1091098464281285 0 0)
(-0.1076294372798366 0 0)
(-0.1051061648607556 0 0)
(-0.1012408793239585 0 0)
(-0.09576274116786544 0 0)
(-0.08845610362526823 0 0)
(-0.07919050693400199 0 0)
(-0.06794518255434186 0 0)
(-0.05482054836903003 0 0)
(-0.04003463258303588 0 0)
(-0.02390346627332123 0 0)
(-0.006800369944866015 0 0)
(0.01090420224010229 0 0)
(0.02889747372923731 0 0)
(0.04692847650150426 0 0)
(0.06470478465515096 0 0)
(0.08159284432510922 0 0)
(0.0960606365267845 0 0)
(0.1055607465863058 0 0)
(0.1090509915876262 0 0)
(0.109459753668202 0 0)
(0.1094162796844934 0 0)
(0.109230698507516 0 0)
(0.1086457530879261 0 0)
(0.1074176864653186 0 0)
(0.1052526001578971 0 0)
(0.1018555651659149 0 0)
(0.09694533486661373 0 0)
(0.09028146909590166 0 0)
(0.08168954160493987 0 0)
(0.07108559349310654 0 0)
(0.05849694243036654 0 0)
(0.04407067265021854 0 0)
(0.0280604701470072 0 0)
(0.01079251152682465 0 0)
(-0.007378866873612023 0 0)
(-0.02611119888636049 0 0)
(-0.04507976873837456 0 0)
(-0.06387213048287668 0 0)
(-0.08163628044953128 0 0)
(-0.09647415389276624 0 0)
(-0.1056246324078445 0 0)
(-0.1086071984868497 0 0)
(-0.1088851132408161 0 0)
(-0.1088590144638423 0 0)
(-0.1086364434649347 0 0)
(-0.1080366823136771 0 0)
(-0.1067951692686083 0 0)
(-0.1046450497397349 0 0)
(-0.1013106273640906 0 0)
(-0.09653161492054362 0 0)
(-0.09008430531636501 0 0)
(-0.08180666004802722 0 0)
(-0.07162053956738425 0 0)
(-0.05954601145146499 0 0)
(-0.04570641085962902 0 0)
(-0.03032178935609475 0 0)
(-0.01368417983299724 0 0)
(0.003885453215484686 0 0)
(0.02207950362931047 0 0)
(0.04060938763508309 0 0)
(0.05912343839134382 0 0)
(0.0769433314273313 0 0)
(0.0925291827015404 0 0)
(0.1032402033947914 0 0)
(0.1075789337434622 0 0)
(0.1082104348429016 0 0)
(0.1081871281288818 0 0)
(0.1080547505784724 0 0)
(0.1075919949646329 0 0)
(0.1065839865044274 0 0)
(0.1047640218488175 0 0)
(0.1018601931293728 0 0)
(0.09760439206025687 0 0)
(0.0917538262159092 0 0)
(0.08411127815647478 0 0)
(0.07454658512433406 0 0)
(0.06301728411159721 0 0)
(0.04958105841469844 0 0)
(0.03439275497997996 0 0)
(0.0176868756917726 0 0)
(-0.0002482525516558301 0 0)
(-0.01909752522328201 0 0)
(-0.03852326861308381 0 0)
(-0.05807314356783778 0 0)
(-0.07685850005926394 0 0)
(-0.09295917315119494 0 0)
(-0.1034332393239684 0 0)
(-0.1072408401904422 0 0)
(-0.1076958687473985 0 0)
(-0.1076864287567932 0 0)
(-0.1075186694302824 0 0)
(-0.107038437632785 0 0)
(-0.1060022496609902 0 0)
(-0.1041668926556525 0 0)
(-0.1012765043958365 0 0)
(-0.09708355643344163 0 0)
(-0.09136515968820799 0 0)
(-0.08394320615623453 0 0)
(-0.07470304748085389 0 0)
(-0.06360797499922473 0 0)
(-0.05070861245177267 0 0)
(-0.03614395907574536 0 0)
(-0.02012762328270339 0 0)
(-0.00291916739282073 0 0)
(0.01520506635455505 0 0)
(0.03395567278172389 0 0)
(0.05296580354144376 0 0)
(0.07156654734947029 0 0)
(0.08828499204643929 0 0)
(0.100456092481456 0 0)
(0.106007912833862 0 0)
(0.107031301173729 0 0)
(0.1070386309838085 0 0)
(0.1069525065602604 0 0)
(0.1065950556675901 0 0)
(0.1057753304667689 0 0)
(0.1042478559028491 0 0)
(0.101760105511257 0 0)
(0.09805780212412407 0 0)
(0.09290181587148172 0 0)
(0.08608399162166432 0 0)
(0.07744542402532373 0 0)
(0.0668953206464324 0 0)
(0.05442427705040939 0 0)
(0.04010703921603866 0 0)
(0.02409629071676229 0 0)
(0.0066104525836068 0 0)
(-0.01208238610153035 0 0)
(-0.03166511217131653 0 0)
(-0.0516915971784585 0 0)
(-0.07130406632010367 0 0)
(-0.0886666066854858 0 0)
(-0.1007503282373517 0 0)
(-0.1057769906037863 0 0)
(-0.1065654281626689 0 0)
(-0.1065756218097426 0 0)
(-0.1064558830904043 0 0)
(-0.1060802400280189 0 0)
(-0.105224380980686 0 0)
(-0.1036635736277843 0 0)
(-0.1011574716616064 0 0)
(-0.09747024314771671 0 0)
(-0.09238302223791908 0 0)
(-0.08570995727951475 0 0)
(-0.07731350035422145 0 0)
(-0.06711803404749216 0 0)
(-0.05512067005291096 0 0)
(-0.04139567935033468 0 0)
(-0.0260880165660839 0 0)
(-0.009396590027700326 0 0)
(0.008443816323525328 0 0)
(0.02716522731172726 0 0)
(0.04641788004129364 0 0)
(0.06558398625727613 0 0)
(0.08332433514883344 0 0)
(0.09706738825146895 0 0)
(0.104191283301156 0 0)
(0.1058694312696206 0 0)
(0.1059429869482714 0 0)
(0.1058900873430785 0 0)
(0.1056272057464932 0 0)
(0.1049727990104976 0 0)
(0.1037009606447238 0 0)
(0.1015744950206237 0 0)
(0.09835146431958781 0 0)
(0.09379865447940897 0 0)
(0.0877039000403666 0 0)
(0.07989132703862449 0 0)
(0.07023759828261611 0 0)
(0.05868434459473686 0 0)
(0.04524413067075397 0 0)
(0.03000169982461314 0 0)
(0.01311087725878778 0 0)
(-0.005213514654928723 0 0)
(-0.02469285291216151 0 0)
(-0.04491670224622762 0 0)
(-0.06510581991939049 0 0)
(-0.08359826411852331 0 0)
(-0.0974303447217993 0 0)
(-0.104082312155307 0 0)
(-0.1054605352846163 0 0)
(-0.1055080419049172 0 0)
(-0.1054289389917261 0 0)
(-0.1051453039344492 0 0)
(-0.1044486078287832 0 0)
(-0.1031312082142126 0 0)
(-0.1009650586782401 0 0)
(-0.09772395496480446 0 0)
(-0.09319346997994306 0 0)
(-0.08718443540686585 0 0)
(-0.07954510064249509 0 0)
(-0.07017273859310605 0 0)
(-0.05902502731168593 0 0)
(-0.0461270726967465 0 0)
(-0.03156875168991481 0 0)
(-0.01549438070976651 0 0)
(0.001906394895275132 0 0)
(0.02039694845030502 0 0)
(0.03965838857399494 0 0)
(0.05914622848398833 0 0)
(0.07770228589205828 0 0)
(0.09297552300181652 0 0)
(0.1019697141962251 0 0)
(0.1046698394532686 0 0)
(0.1048924026050402 0 0)
(0.1048690121125816 0 0)
(0.1046776869710944 0 0)
(0.1041665603006725 0 0)
(0.1031167067662046 0 0)
(0.1013068854690914 0 0)
(0.09850549367062378 0 0)
(0.0944853336539381 0 0)
(0.08903354249480772 0 0)
(0.08196428066622197 0 0)
(0.07313201232731883 0 0)
(0.06244275889165334 0 0)
(0.04986225201853296 0 0)
(0.03542142717437385 0 0)
(0.01921795278271062 0 0)
(0.001413694382034644 0 0)
(-0.01775851902611576 0 0)
(-0.03793830277415837 0 0)
(-0.05844848429807106 0 0)
(-0.07785093592671265 0 0)
(-0.09339531823559742 0 0)
(-0.1019981904399919 0 0)
(-0.1043061090664491 0 0)
(-0.104458783627589 0 0)
(-0.10441213268546 0 0)
(-0.1042082547528493 0 0)
(-0.1036566105600339 0 0)
(-0.1025604174993922 0 0)
(-0.1007021621128054 0 0)
(-0.09786322332365974 0 0)
(-0.09383326660409304 0 0)
(-0.08842149864325728 0 0)
(-0.08146686231458751 0 0)
(-0.07284854463760959 0 0)
(-0.06249649919881287 0 0)
(-0.05039834327838614 0 0)
(-0.03659950527344127 0 0)
(-0.02119902352876583 0 0)
(-0.004346026067293967 0 0)
(0.01375858127199682 0 0)
(0.0328370169557848 0 0)
(0.05242414385736505 0 0)
(0.07155018627695892 0 0)
(0.08816982760296997 0 0)
(0.09917903928564981 0 0)
(0.103328248747015 0 0)
(0.1038730040297786 0 0)
(0.1038694408356695 0 0)
(0.1037387550364226 0 0)
(0.1033486053208792 0 0)
(0.1024936519031265 0 0)
(0.1009645033304154 0 0)
(0.09853883030690268 0 0)
(0.0949952806269164 0 0)
(0.09012204412137072 0 0)
(0.08372729728162513 0 0)
(0.07565002223217165 0 0)
(0.06577063174469179 0 0)
(0.05402031374858829 0 0)
(0.04038797367110479 0 0)
(0.02492404259654556 0 0)
(0.007742874882520827 0 0)
(-0.01096723861600664 0 0)
(-0.03089988736786809 0 0)
(-0.05148672956260769 0 0)
(-0.07153053249224189 0 0)
(-0.08860833163986155 0 0)
(-0.09936365380002722 0 0)
(-0.1030361182421806 0 0)
(-0.1034374549788836 0 0)
(-0.1034176265402626 0 0)
(-0.1032775401255112 0 0)
(-0.1028553089080519 0 0)
(-0.1019585018238102 0 0)
(-0.1003787520503364 0 0)
(-0.09790309702103628 0 0)
(-0.09432384623962949 0 0)
(-0.08944875670501952 0 0)
(-0.08311096513360602 0 0)
(-0.07517883320345232 0 0)
(-0.06556468427145451 0 0)
(-0.05423062212992979 0 0)
(-0.04119035409141966 0 0)
(-0.02650773736878273 0 0)
(-0.01029436296380526 0 0)
(0.007290209733615148 0 0)
(0.02601758052781787 0 0)
(0.04550480138438427 0 0)
(0.06497027078802962 0 0)
(0.08269242772480881 0 0)
(0.09571371093554686 0 0)
(0.1017116306760801 0 0)
(0.1029308295744011 0 0)
(0.1030458820721557 0 0)
(0.1029791477140885 0 0)
(0.1026629829717952 0 0)
(0.1019239466506664 0 0)
(0.1005617331104338 0 0)
(0.09837062911148056 0 0)
(0.09515080358990022 0 0)
(0.09071175581416925 0 0)
(0.0848780410703561 0 0)
(0.0774939836134627 0 0)
(0.06842769348006375 0 0)
(0.05757764092836096 0 0)
(0.04488245510226476 0 0)
(0.03033232040791128 0 0)
(0.01397977276632158 0 0)
(-0.004048667157713143 0 0)
(-0.0235145182792833 0 0)
(-0.0439752026546576 0 0)
(-0.06442946457568881 0 0)
(-0.08274117644296375 0 0)
(-0.095660471605783 0 0)
(-0.1012817999010035 0 0)
(-0.1023435646407474 0 0)
(-0.1023235192607228 0 0)
(-0.1020571659668919 0 0)
(-0.1015061852864647 0 0)
(-0.1005068624162429 0 0)
(-0.09890747159184848 0 0)
(-0.09653704249932242 0 0)
(-0.09321697688530176 0 0)
(-0.08877711289140089 0 0)
(-0.08306568046613133 0 0)
(-0.07595167148725374 0 0)
(-0.06732537112554449 0 0)
(-0.05710369456162937 0 0)
(-0.04523984615464976 0 0)
(-0.03173135887510885 0 0)
(-0.01662187690874937 0 0)
(-6.596917071118325e-06 0 0)
(0.01793753294827052 0 0)
(0.03689772018015238 0 0)
(0.05625875502360034 0 0)
(0.07455797308131705 0 0)
(0.08893603757177478 0 0)
(0.09711303619283393 0 0)
(0.09975995843387091 0 0)
(0.1000655019038394 0 0)
(0.1000036264310558 0 0)
(0.09967719469859589 0 0)
(0.09892623296522136 0 0)
(0.0976411918648588 0 0)
(0.09568144990957968 0 0)
(0.09286153437252134 0 0)
(0.0889740001028662 0 0)
(0.08382622768813239 0 0)
(0.07725161493801201 0 0)
(0.06910517506785786 0 0)
(0.05926446823118843 0 0)
(0.04763947149779181 0 0)
(0.03418301205794232 0 0)
(0.01889681795258395 0 0)
(0.001849982459913857 0 0)
(-0.01676377700103826 0 0)
(-0.03654958705335597 0 0)
(-0.05673800686119632 0 0)
(-0.07563501326542932 0 0)
(-0.09014077181999058 0 0)
(-0.09793548018943786 0 0)
(-0.1003213954590902 0 0)
(-0.1005102098419808 0 0)
(-0.100409756672928 0 0)
(-0.1000230229678584 0 0)
(-0.09919135003016889 0 0)
(-0.0978130328659033 0 0)
(-0.0957536518717914 0 0)
(-0.09283532856584749 0 0)
(-0.08887138251927598 0 0)
(-0.08369473926584221 0 0)
(-0.07716235631046381 0 0)
(-0.06915405572665843 0 0)
(-0.05957869679890419 0 0)
(-0.04838228625999862 0 0)
(-0.03555084969371707 0 0)
(-0.02110926551745463 0 0)
(-0.005125043105116967 0 0)
(0.01225793485684528 0 0)
(0.03075210542130823 0 0)
(0.04983184486732714 0 0)
(0.06844447179677161 0 0)
(0.08433150122007801 0 0)
(0.09464408687611887 0 0)
(0.09895548272850394 0 0)
(0.09970660964039464 0 0)
(0.09976446313074783 0 0)
(0.09954884596295741 0 0)
(0.09894930921044172 0 0)
(0.09781934874873312 0 0)
(0.09604599421992129 0 0)
(0.09347620582801906 0 0)
(0.08992759922710705 0 0)
(0.08521837058012911 0 0)
(0.07917674219097171 0 0)
(0.07164063526134921 0 0)
(0.06246630769776385 0 0)
(0.05154373338931162 0 0)
(0.03880815953445509 0 0)
(0.02424629470928986 0 0)
(0.007906444035179946 0 0)
(-0.01006039476162911 0 0)
(-0.02932282403117152 0 0)
(-0.04926317206593195 0 0)
(-0.06863856459590402 0 0)
(-0.08487604543202254 0 0)
(-0.0949196962415562 0 0)
(-0.09878778718180653 0 0)
(-0.09938645496004567 0 0)
(-0.09940715587868409 0 0)
(-0.09915970907175257 0 0)
(-0.09852007110844813 0 0)
(-0.09734686607725136 0 0)
(-0.09552562906197777 0 0)
(-0.09290058316742519 0 0)
(-0.08930261951362037 0 0)
(-0.084574706323457 0 0)
(-0.07857338011650269 0 0)
(-0.07116600546147892 0 0)
(-0.06224025673998273 0 0)
(-0.05171899895879601 0 0)
(-0.03956928081216397 0 0)
(-0.02580334764388656 0 0)
(-0.01047748956397658 0 0)
(0.006287276902868347 0 0)
(0.02424715222624701 0 0)
(0.04297808325943305 0 0)
(0.06170515319070556 0 0)
(0.07869798461784645 0 0)
(0.09100961858967485 0 0)
(0.09715304493430436 0 0)
(0.09876741633450965 0 0)
(0.09893030215063046 0 0)
(0.09884992946271255 0 0)
(0.09843143832774583 0 0)
(0.09751191127850313 0 0)
(0.09597335923446969 0 0)
(0.09367498498094516 0 0)
(0.09045139476260301 0 0)
(0.08613434997943104 0 0)
(0.0805647092840853 0 0)
(0.0735877051180782 0 0)
(0.06505384706000511 0 0)
(0.05483313700434402 0 0)
(0.04283446370855026 0 0)
(0.02902052555641452 0 0)
(0.01341635459293967 0 0)
(-0.003863991969819887 0 0)
(-0.02254954025308207 0 0)
(-0.04214300402657415 0 0)
(-0.06171513348279167 0 0)
(-0.07924515346069327 0 0)
(-0.09148653770335709 0 0)
(-0.09712403300617257 0 0)
(-0.09848304669513233 0 0)
(-0.09857072648222974 0 0)
(-0.09845773544119714 0 0)
(-0.09800166001279677 0 0)
(-0.09704602927734025 0 0)
(-0.09547310453840746 0 0)
(-0.09313461776143757 0 0)
(-0.08987022347328874 0 0)
(-0.08553257430870083 0 0)
(-0.0799888738712337 0 0)
(-0.07311200034890979 0 0)
(-0.06478380565936294 0 0)
(-0.0549103529586961 0 0)
(-0.04343665905099529 0 0)
(-0.03035428655891639 0 0)
(-0.01570322620898777 0 0)
(0.0004184897529663363 0 0)
(0.0178144334551811 0 0)
(0.03613386614220174 0 0)
(0.05476763242724359 0 0)
(0.07244071653209046 0 0)
(0.0865706640183489 0 0)
(0.09471472403454016 0 0)
(0.09755172797580121 0 0)
(0.09790127265718807 0 0)
(0.09796547542376209 0 0)
(0.09771321888168827 0 0)
(0.0970110945181413 0 0)
(0.09571916654925713 0 0)
(0.09370276340143308 0 0)
(0.09080033971616351 0 0)
(0.08685033456160424 0 0)
(0.08170615607392706 0 0)
(0.07522676675772168 0 0)
(0.06726904107367464 0 0)
(0.05769755791466942 0 0)
(0.04640494167660249 0 0)
(0.03333049699503234 0 0)
(0.01847332497058385 0 0)
(0.001910006301866299 0 0)
(-0.01615582103224681 0 0)
(-0.03531735836141735 0 0)
(-0.05483647548840273 0 0)
(-0.07317824887471815 0 0)
(-0.08743162017984586 0 0)
(-0.0951005852783911 0 0)
(-0.0975291410695143 0 0)
(-0.09775032529673679 0 0)
(-0.09777925757061298 0 0)
(-0.0974820734227087 0 0)
(-0.09673792018919704 0 0)
(-0.09541209670809934 0 0)
(-0.09336402578245157 0 0)
(-0.09043165245522063 0 0)
(-0.08646860265425214 0 0)
(-0.08135034632280493 0 0)
(-0.07495961922605909 0 0)
(-0.06718152017121178 0 0)
(-0.05791511855617867 0 0)
(-0.047089911838368 0 0)
(-0.03467817987451117 0 0)
(-0.02070070544155886 0 0)
(-0.005230311373460118 0 0)
(0.01158028619383797 0 0)
(0.02943661651158256 0 0)
(0.04784192036881356 0 0)
(0.06585896046196654 0 0)
(0.08143214213529935 0 0)
(0.09159709970178888 0 0)
(0.09591348508960551 0 0)
(0.09676784569818712 0 0)
(0.09692417103150638 0 0)
(0.09680209901624817 0 0)
(0.0963159536878878 0 0)
(0.0952789532932382 0 0)
(0.09355344788292198 0 0)
(0.09097969437360408 0 0)
(0.08739663066172311 0 0)
(0.08266185613645383 0 0)
(0.07664521538719528 0 0)
(0.0692161505560687 0 0)
(0.06024530410814438 0 0)
(0.04961882529507104 0 0)
(0.0372581810833311 0 0)
(0.02313871358683355 0 0)
(0.007302934776818389 0 0)
(-0.01010294939115951 0 0)
(-0.02874845571002781 0 0)
(-0.04803736249608422 0 0)
(-0.06683201071971964 0 0)
(-0.08273450278396913 0 0)
(-0.09258895611263887 0 0)
(-0.09636789481319961 0 0)
(-0.09704580160588365 0 0)
(-0.09712479026717916 0 0)
(-0.09695968871279878 0 0)
(-0.09641928248867224 0 0)
(-0.09533825786431474 0 0)
(-0.09357733484891649 0 0)
(-0.09097140443691766 0 0)
(-0.08736994993904548 0 0)
(-0.08265234773553894 0 0)
(-0.07671214563336563 0 0)
(-0.06944304394073079 0 0)
(-0.06074401470291723 0 0)
(-0.05053502693834597 0 0)
(-0.03877162685568391 0 0)
(-0.02545453541091186 0 0)
(-0.010635189073587 0 0)
(0.005566750101784509 0 0)
(0.0229137641214796 0 0)
(0.04099546965557274 0 0)
(0.05908787369798758 0 0)
(0.07562483800755752 0 0)
(0.08778715916188927 0 0)
(0.09383115807928137 0 0)
(0.09556647760598663 0 0)
(0.0957293362280698 0 0)
(0.09577463997699018 0 0)
(0.09547208673744829 0 0)
(0.09467736354122112 0 0)
(0.093242711566658 0 0)
(0.09100192933045129 0 0)
(0.08778469457051664 0 0)
(0.0834471238177594 0 0)
(0.07786952978648283 0 0)
(0.07093662403734378 0 0)
(0.06252891199498802 0 0)
(0.05253211354505032 0 0)
(0.04085603113811239 0 0)
(0.02745432529074852 0 0)
(0.01234127455148603 0 0)
(-0.004382105404507002 0 0)
(-0.02246368116298754 0 0)
(-0.04142016235088789 0 0)
(-0.06036154340536693 0 0)
(-0.07741245084478399 0 0)
(-0.08945501479621819 0 0)
(-0.09495938728648695 0 0)
(-0.0963812237336017 0 0)
(-0.09642182841120341 0 0)
(-0.0964254999049155 0 0)
(-0.09606034170141038 0 0)
(-0.09521614046467468 0 0)
(-0.09374530798600693 0 0)
(-0.09147218548742532 0 0)
(-0.08823137197746127 0 0)
(-0.08389793438984325 0 0)
(-0.07837562855096618 0 0)
(-0.07157444128018192 0 0)
(-0.06340371066143674 0 0)
(-0.05378108264786156 0 0)
(-0.04264762201885636 0 0)
(-0.02998278932921849 0 0)
(-0.01581494483423783 0 0)
(-0.0002314480239389207 0 0)
(0.01658342678281904 0 0)
(0.03428213045004117 0 0)
(0.05227224106205407 0 0)
(0.06939231525538689 0 0)
(0.08328792010825746 0 0)
(0.09130774852936346 0 0)
(0.09411879349697495 0 0)
(0.09452557591101926 0 0)
(0.09464915162067704 0 0)
(0.09448862443707713 0 0)
(0.09393452452994412 0 0)
(0.0927938472073294 0 0)
(0.09089563708793899 0 0)
(0.0880557379724245 0 0)
(0.0841179459625415 0 0)
(0.07896206563752463 0 0)
(0.07248500332347396 0 0)
(0.06458635152964635 0 0)
(0.0551675145561028 0 0)
(0.04413871844994884 0 0)
(0.0314349398168798 0 0)
(0.01703974594841063 0 0)
(0.001010469480443919 0 0)
(-0.01646962571452494 0 0)
(-0.03500261064960549 0 0)
(-0.05387360506422582 0 0)
(-0.07166939414102813 0 0)
(-0.08566275355587416 0 0)
(-0.09319576211264112 0 0)
(-0.09552434677941632 0 0)
(-0.09581265553084171 0 0)
(-0.09583255731608074 0 0)
(-0.09560510096073446 0 0)
(-0.09498575497516706 0 0)
(-0.09380650128312236 0 0)
(-0.09188148595147837 0 0)
(-0.08902233977279403 0 0)
(-0.08508383138901841 0 0)
(-0.07996675786493532 0 0)
(-0.07359627145798685 0 0)
(-0.06590403724107508 0 0)
(-0.05682334598933565 0 0)
(-0.04629437782629026 0 0)
(-0.03427778452526452 0 0)
(-0.02077252132441298 0 0)
(-0.005829735044867151 0 0)
(0.01041713041674612 0 0)
(0.02768597762590397 0 0)
(0.04548377101440496 0 0)
(0.06291243211492405 0 0)
(0.07808540861863857 0 0)
(0.08819256836406258 0 0)
(0.09242091130596836 0 0)
(0.09338374270729045 0 0)
(0.09337818435682499 0 0)
(0.09335954690313324 0 0)
(0.09298670037152905 0 0)
(0.09212690049337827 0 0)
(0.09059115983599421 0 0)
(0.08816474964779421 0 0)
(0.0846568509640845 0 0)
(0.07992908715470691 0 0)
(0.07388520076063161 0 0)
(0.06644839061862466 0 0)
(0.05754644260818572 0 0)
(0.04710862344767031 0 0)
(0.03507190255564235 0 0)
(0.02139840659758363 0 0)
(0.006100576415491702 0 0)
(-0.01071422782401618 0 0)
(-0.02874843583852048 0 0)
(-0.04741835344268081 0 0)
(-0.06562683092400823 0 0)
(-0.08113315970625078 0 0)
(-0.0909218181878836 0 0)
(-0.09463576598215061 0 0)
(-0.09536171879166995 0 0)
(-0.09525403174536508 0 0)
(-0.09512299214011831 0 0)
(-0.09465295778988922 0 0)
(-0.09372939690621224 0 0)
(-0.09215950144637601 0 0)
(-0.08972261514348055 0 0)
(-0.08622773273590996 0 0)
(-0.08154186749731755 0 0)
(-0.0755835440552614 0 0)
(-0.06830568691699454 0 0)
(-0.05967798189886466 0 0)
(-0.04967279168933278 0 0)
(-0.03826052120965361 0 0)
(-0.02542038722047812 0 0)
(-0.01116231757755871 0 0)
(0.004443014287354854 0 0)
(0.02119648765109634 0 0)
(0.0386949882918166 0 0)
(0.05622734165610959 0 0)
(0.07232415489238996 0 0)
(0.08439159812032804 0 0)
(0.0904905821492191 0 0)
(0.09212885160284534 0 0)
(0.09225079200051574 0 0)
(0.09214842605848483 0 0)
(0.09184646305301115 0 0)
(0.0911893376204235 0 0)
(0.08999071077997341 0 0)
(0.0880180636802681 0 0)
(0.08502769238486112 0 0)
(0.0808155425757867 0 0)
(0.07524180738682162 0 0)
(0.06823034468351205 0 0)
(0.05975115519367801 0 0)
(0.04979192464708194 0 0)
(0.03833252027715126 0 0)
(0.02533996079674167 0 0)
(0.01079372288668778 0 0)
(-0.005270286286502302 0 0)
(-0.02267304469927691 0 0)
(-0.0409774294645344 0 0)
(-0.05933662122317475 0 0)
(-0.07596822241315349 0 0)
(-0.08792382235299688 0 0)
(-0.09357511586109286 0 0)
(-0.09492681029902122 0 0)
(-0.09495789363949371 0 0)
(-0.09472217888798591 0 0)
(-0.09426109298589513 0 0)
(-0.09345632405354086 0 0)
(-0.09216120528295652 0 0)
(-0.09016277391085145 0 0)
(-0.08721465585307625 0 0)
(-0.08309429288725316 0 0)
(-0.07764082155278494 0 0)
(-0.07077455819988976 0 0)
(-0.06249639438614019 0 0)
(-0.05285804700607678 0 0)
(-0.04191333194974003 0 0)
(-0.02967851715549359 0 0)
(-0.01613366470491074 0 0)
(-0.001264921200005108 0 0)
(0.0148477786128774 0 0)
(0.03191158524935241 0 0)
(0.04935602786738109 0 0)
(0.06605419155414223 0 0)
(0.07974010247728049 0 0)
(0.08796717313726039 0 0)
(0.09089168071715721 0 0)
(0.09132496291758214 0 0)
(0.09115114376816863 0 0)
(0.09082859103084809 0 0)
(0.09015541107099977 0 0)
(0.08904851189131871 0 0)
(0.08737377332124929 0 0)
(0.08491839830519861 0 0)
(0.08141879815054727 0 0)
(0.07660466575151345 0 0)
(0.07024627628394758 0 0)
(0.06220020026111001 0 0)
(0.05245188728622537 0 0)
(0.04114196626580412 0 0)
(0.02852513190289594 0 0)
(0.01477480257814901 0 0)
(-0.0001731308863314164 0 0)
(-0.01681288370333708 0 0)
(-0.03408495056308698 0 0)
(-0.0549217812824371 0 0)
)
;

boundaryField
{
    inlet
    {
        type            zeroGradient;
    }
    outlet
    {
        type            velocityOutletNSCBCx;
        pInf            101325;
        gamma           1.4;
        etaAc           1;
        fieldInf        (-1 0 0);
        lInf            2.25;
        value           uniform (-0.06252717351483485 0 0);
    }
    frontAndBack
    {
        type            empty;
    }
}


// ************************************************************************* //
