/*--------------------------------*- C++ -*----------------------------------*\
| =========                 |                                                 |
| \\      /  F ield         | OpenFOAM: The Open Source CFD Toolbox           |
|  \\    /   O peration     | Version:  v2012                                 |
|   \\  /    A nd           | Website:  www.openfoam.com                      |
|    \\/     M anipulation  |                                                 |
\*---------------------------------------------------------------------------*/
FoamFile
{
    version     2.0;
    format      ascii;
    class       volVectorField;
    location    "0.0105";
    object      UMean;
}
// * * * * * * * * * * * * * * * * * * * * * * * * * * * * * * * * * * * * * //

dimensions      [0 1 -1 0 0 0 0];


internalField   nonuniform List<vector> 
1000
(
(0.001242878988710317 0 0)
(0.001187521783253944 0 0)
(0.001187792314421951 0 0)
(0.001153132764074878 0 0)
(0.001115308005808754 0 0)
(0.0010577792852159 0 0)
(0.0009974114250711236 0 0)
(0.0009265174691304496 0 0)
(0.0008537633342800326 0 0)
(0.0007747628331452319 0 0)
(0.0006937088309708063 0 0)
(0.0006113490464198436 0 0)
(0.0005293260139276414 0 0)
(0.0004483657061887188 0 0)
(0.0003697841594812491 0 0)
(0.0002953153247285683 0 0)
(0.0002263555934113752 0 0)
(0.0001644707692891256 0 0)
(0.0001106951061320774 0 0)
(6.607921767943831e-05 0 0)
(3.134172261125601e-05 0 0)
(7.105235602934206e-06 0 0)
(-6.099510828972672e-06 0 0)
(-8.092999459370944e-06 0 0)
(1.293764121938439e-06 0 0)
(2.176722622297729e-05 0 0)
(5.305773932369068e-05 0 0)
(9.447548739515458e-05 0 0)
(0.000145469867985903 0 0)
(0.0002053091245114253 0 0)
(0.0002734302852372741 0 0)
(0.0003485386144258953 0 0)
(0.0004280834312154403 0 0)
(0.0005089136237949281 0 0)
(0.000589780412716048 0 0)
(0.0006703387236535696 0 0)
(0.0007501443915490028 0 0)
(0.0008281302002426332 0 0)
(0.0009030477933566616 0 0)
(0.000973174222266938 0 0)
(0.001036970082444316 0 0)
(0.00109279852462346 0 0)
(0.0011395891808993 0 0)
(0.001176320983898316 0 0)
(0.001202522410370234 0 0)
(0.001217681520673838 0 0)
(0.001221719706202548 0 0)
(0.001214478607786859 0 0)
(0.001196219937893904 0 0)
(0.001167127793176639 0 0)
(0.001127728020473018 0 0)
(0.001078349791292969 0 0)
(0.001019531212327862 0 0)
(0.0009518476983962637 0 0)
(0.000877069398499127 0 0)
(0.0007982357397735415 0 0)
(0.0007184831061963007 0 0)
(0.000638682585004027 0 0)
(0.0005591451386757283 0 0)
(0.0004802641750109406 0 0)
(0.0004028430964275972 0 0)
(0.0003279973309474398 0 0)
(0.0002571724175706484 0 0)
(0.0001919504199033692 0 0)
(0.000133974109072793 0 0)
(8.466085546884468e-05 0 0)
(4.522070786689335e-05 0 0)
(1.644492415206035e-05 0 0)
(-1.135374065919377e-06 0 0)
(-7.337845696041605e-06 0 0)
(-2.138317052958023e-06 0 0)
(1.428071033286829e-05 0 0)
(4.168901633196337e-05 0 0)
(7.974323182352073e-05 0 0)
(0.0001281802379061645 0 0)
(0.0001865925805380065 0 0)
(0.0002541834675804665 0 0)
(0.0003288494249663566 0 0)
(0.0004071327093623415 0 0)
(0.0004861695397359752 0 0)
(0.0005651926419729937 0 0)
(0.0006439484858838888 0 0)
(0.0007221668902930387 0 0)
(0.0007989791862795734 0 0)
(0.0008735600611370648 0 0)
(0.0009444359019431907 0 0)
(0.001010302892351543 0 0)
(0.001069401259885773 0 0)
(0.00112041506008419 0 0)
(0.001161855050384751 0 0)
(0.001192917565023975 0 0)
(0.001212768804872326 0 0)
(0.001221296430942597 0 0)
(0.001218274543829044 0 0)
(0.001204046482076052 0 0)
(0.001178666643858815 0 0)
(0.00114258560665877 0 0)
(0.001095852886855054 0 0)
(0.001038982485778939 0 0)
(0.0009725906914793932 0 0)
(0.0008989749452893436 0 0)
(0.0008215023027066109 0 0)
(0.0007432975806677707 0 0)
(0.0006650090153665794 0 0)
(0.0005869698796606775 0 0)
(0.0005094015345487422 0 0)
(0.0004329877199014859 0 0)
(0.0003585464160551577 0 0)
(0.0002872967814490817 0 0)
(0.0002205602659692987 0 0)
(0.0001599173829792772 0 0)
(0.0001068376466071188 0 0)
(6.281896894232936e-05 0 0)
(2.896799499903699e-05 0 0)
(6.231052774212287e-06 0 0)
(-4.972145313614473e-06 0 0)
(-4.366649156661744e-06 0 0)
(7.886712435471544e-06 0 0)
(3.167751754608058e-05 0 0)
(6.66628632525244e-05 0 0)
(0.0001126899227323755 0 0)
(0.0001692974744622159 0 0)
(0.0002355702915470936 0 0)
(0.0003090337404871254 0 0)
(0.0003860237723644678 0 0)
(0.0004636784959916641 0 0)
(0.0005413601335045996 0 0)
(0.0006187926000086742 0 0)
(0.0006958292691056012 0 0)
(0.000771701435607182 0 0)
(0.0008458100839552154 0 0)
(0.0009168519898868778 0 0)
(0.0009837740100405914 0 0)
(0.001044904973662201 0 0)
(0.001098992927142933 0 0)
(0.001144396536082703 0 0)
(0.001180104096076905 0 0)
(0.001204946118074559 0 0)
(0.001218509185217359 0 0)
(0.001220289011120685 0 0)
(0.001210455300811872 0 0)
(0.001188942436818166 0 0)
(0.001156170415817771 0 0)
(0.001112166039791434 0 0)
(0.001057510414642456 0 0)
(0.0009928879800987257 0 0)
(0.0009207748228541401 0 0)
(0.0008446242736718924 0 0)
(0.0007676850187157489 0 0)
(0.0006906206202907631 0 0)
(0.0006137827174169957 0 0)
(0.0005372752184519275 0 0)
(0.0004617220442236143 0 0)
(0.0003877268175537042 0 0)
(0.0003163852527623205 0 0)
(0.0002487723032432978 0 0)
(0.0001863777827616966 0 0)
(0.0001305446982068715 0 0)
(8.285376638248959e-05 0 0)
(4.452189956679977e-05 0 0)
(1.67952287365034e-05 0 0)
(3.757189951815963e-07 0 0)
(-4.101019816144016e-06 0 0)
(3.440671830185438e-06 0 0)
(2.312261353686999e-05 0 0)
(5.465841481078946e-05 0 0)
(9.796109436156009e-05 0 0)
(0.0001524400180202756 0 0)
(0.000217102818635902 0 0)
(0.0002892159939141777 0 0)
(0.0003650290629612928 0 0)
(0.000441524466637467 0 0)
(0.0005180894324753986 0 0)
(0.0005944236145882537 0 0)
(0.0006704686309769041 0 0)
(0.0007455338429589288 0 0)
(0.0008191598870822589 0 0)
(0.0008901958136898919 0 0)
(0.0009577472531621362 0 0)
(0.001020287792089694 0 0)
(0.001076658771881211 0 0)
(0.0011252221669523 0 0)
(0.001164893692941838 0 0)
(0.001194300157602382 0 0)
(0.001212797435937241 0 0)
(0.001219559712026155 0 0)
(0.001214520180158961 0 0)
(0.001197356425611749 0 0)
(0.001168388707193732 0 0)
(0.001127554602200688 0 0)
(0.001075480933558121 0 0)
(0.001012892461943749 0 0)
(0.0009423652527638554 0 0)
(0.0008674488993105954 0 0)
(0.0007915931083276139 0 0)
(0.0007155796004906609 0 0)
(0.0006397699703704186 0 0)
(0.0005641893555202464 0 0)
(0.0004894065094204469 0 0)
(0.0004158775027007145 0 0)
(0.0003445881187878699 0 0)
(0.0002764332823459221 0 0)
(0.0002127913439976181 0 0)
(0.0001548703152477855 0 0)
(0.0001042399203071034 0 0)
(6.212756702133327e-05 0 0)
(2.995376829917028e-05 0 0)
(8.606032311194111e-06 0 0)
(-9.605300041324149e-07 0 0)
(1.590240699648638e-06 0 0)
(1.668303804546616e-05 0 0)
(4.420617033808507e-05 0 0)
(8.421293481323616e-05 0 0)
(0.0001361087227197886 0 0)
(0.0001988546799508819 0 0)
(0.00026954294787524 0 0)
(0.000344248415186859 0 0)
(0.0004197369100505667 0 0)
(0.0004953210183101443 0 0)
(0.0005707021399782611 0 0)
(0.0006458689698262679 0 0)
(0.0007202086637498156 0 0)
(0.0007933575991431331 0 0)
(0.0008642885291355986 0 0)
(0.0009322366835055736 0 0)
(0.0009958059693746049 0 0)
(0.001053941824600634 0 0)
(0.001105058368024692 0 0)
(0.001148066559511618 0 0)
(0.001181494301436038 0 0)
(0.001204540951271031 0 0)
(0.001216140532028845 0 0)
(0.001215981079160298 0 0)
(0.00120348434410862 0 0)
(0.0011787711374213 0 0)
(0.00114163222146743 0 0)
(0.001092622151197432 0 0)
(0.001032438565388744 0 0)
(0.0009636702835465907 0 0)
(0.0008899822890443776 0 0)
(0.0008151044600842993 0 0)
(0.0007400243812162597 0 0)
(0.0006651274641397249 0 0)
(0.00059038328769302 0 0)
(0.0005163073880186336 0 0)
(0.0004432479680424518 0 0)
(0.0003721008329112677 0 0)
(0.0003036125656198569 0 0)
(0.0002390616804153733 0 0)
(0.0001795205539752313 0 0)
(0.0001265130028257377 0 0)
(8.123003504155658e-05 0 0)
(4.517135868964253e-05 0 0)
(1.934525057813813e-05 0 0)
(4.930966316230158e-06 0 0)
(2.505097551682656e-06 0 0)
(1.277732644881595e-05 0 0)
(3.58643188727355e-05 0 0)
(7.202742745993416e-05 0 0)
(0.0001207713609299654 0 0)
(0.0001811335179344717 0 0)
(0.000250155723825383 0 0)
(0.0003237484965638038 0 0)
(0.0003983241743108671 0 0)
(0.0004730381937383589 0 0)
(0.0005475614174647874 0 0)
(0.0006219457796021972 0 0)
(0.0006956113492704142 0 0)
(0.0007683004932691086 0 0)
(0.0008390588927079177 0 0)
(0.000907258937969575 0 0)
(0.0009715921551266962 0 0)
(0.001031127079286209 0 0)
(0.001084331482913546 0 0)
(0.001130157026874761 0 0)
(0.001167089741558629 0 0)
(0.001194235639786062 0 0)
(0.001210367059535952 0 0)
(0.001214963264358504 0 0)
(0.001207222397822623 0 0)
(0.001187041321278964 0 0)
(0.001154031137836817 0 0)
(0.001108587197585528 0 0)
(0.001051293466707424 0 0)
(0.0009846096266797203 0 0)
(0.0009122489219465537 0 0)
(0.0008382886930265253 0 0)
(0.0007640573670987419 0 0)
(0.0006899885384226747 0 0)
(0.0006160148499832274 0 0)
(0.0005426005239995294 0 0)
(0.0004700159416637874 0 0)
(0.0003990668426407619 0 0)
(0.000330393711599627 0 0)
(0.0002651650173483659 0 0)
(0.0002043532407986289 0 0)
(0.0001493971399848636 0 0)
(0.000101450674846213 0 0)
(6.201810482375226e-05 0 0)
(3.219056924720854e-05 0 0)
(1.327823181872088e-05 0 0)
(6.065968149012369e-06 0 0)
(1.14822825769195e-05 0 0)
(2.989688980353163e-05 0 0)
(6.177369886385288e-05 0 0)
(0.0001068265223749977 0 0)
(0.0001642482716733107 0 0)
(0.0002312422235614768 0 0)
(0.0003035977055984672 0 0)
(0.000377317413521714 0 0)
(0.0004512149258641873 0 0)
(0.0005249613154273946 0 0)
(0.0005986061530315131 0 0)
(0.0006716561560894913 0 0)
(0.0007438818040507938 0 0)
(0.000814447638525568 0 0)
(0.0008827795327045908 0 0)
(0.0009477055740975301 0 0)
(0.001008349632057484 0 0)
(0.001063292470360352 0 0)
(0.00111149766615059 0 0)
(0.001151486237232982 0 0)
(0.001182285112536669 0 0)
(0.001202587442417446 0 0)
(0.001211696641011291 0 0)
(0.001208643555485961 0 0)
(0.001193110832190367 0 0)
(0.001164526441298561 0 0)
(0.001123093480949935 0 0)
(0.001069191285566827 0 0)
(0.001005027800396761 0 0)
(0.0009342045303718963 0 0)
(0.0008611737964771772 0 0)
(0.0007877334175946006 0 0)
(0.0007144440543962281 0 0)
(0.0006411920349551171 0 0)
(0.0005684136961421786 0 0)
(0.0004962978605657066 0 0)
(0.0004255925175153024 0 0)
(0.000356830040838178 0 0)
(0.0002911042217137262 0 0)
(0.0002292722592903736 0 0)
(0.0001727141622995726 0 0)
(0.0001225039237135796 0 0)
(8.015261306948323e-05 0 0)
(4.675873651055992e-05 0 0)
(2.374389444014336e-05 0 0)
(1.200865804721767e-05 0 0)
(1.268850366369736e-05 0 0)
(2.633440455003364e-05 0 0)
(5.364719233304531e-05 0 0)
(9.453779653462246e-05 0 0)
(0.0001484856989369017 0 0)
(0.000212971221938983 0 0)
(0.0002838792138645605 0 0)
(0.000356720996799338 0 0)
(0.0004298580859235511 0 0)
(0.0005028552135807032 0 0)
(0.0005758058741343655 0 0)
(0.0006482476240296524 0 0)
(0.0007200206013984258 0 0)
(0.000790347380101902 0 0)
(0.0008587409611613211 0 0)
(0.0009241083852601896 0 0)
(0.0009856593638833627 0 0)
(0.001042050606845354 0 0)
(0.001092294963805468 0 0)
(0.001134945980818867 0 0)
(0.001169000357444058 0 0)
(0.001193106269092134 0 0)
(0.001206439474029426 0 0)
(0.001207913915631141 0 0)
(0.001197016403376788 0 0)
(0.001173030426365223 0 0)
(0.001135929150220119 0 0)
(0.001085883230782574 0 0)
(0.001024701931493564 0 0)
(0.0009557495893339012 0 0)
(0.0008837121027145392 0 0)
(0.0008110503318714749 0 0)
(0.000738493215910281 0 0)
(0.0006659513132420687 0 0)
(0.0005937824279768991 0 0)
(0.0005221551209384492 0 0)
(0.000451716308133367 0 0)
(0.0003829582971709917 0 0)
(0.0003168556715986699 0 0)
(0.0002542192363356448 0 0)
(0.0001963131032349049 0 0)
(0.0001441884252630559 0 0)
(9.928319931925236e-05 0 0)
(6.273671517202859e-05 0 0)
(3.597903839844982e-05 0 0)
(2.004086869729899e-05 0 0)
(1.615558154410676e-05 0 0)
(2.507407800274535e-05 0 0)
(4.765066698026097e-05 0 0)
(8.404967795053572e-05 0 0)
(0.0001340235764049059 0 0)
(0.0001955013106368056 0 0)
(0.0002646194596228848 0 0)
(0.0003365224747805676 0 0)
(0.0004089172558605706 0 0)
(0.0004812024135736833 0 0)
(0.000553471284749712 0 0)
(0.0006253211296666117 0 0)
(0.0006966281367131627 0 0)
(0.0007666872289431189 0 0)
(0.0008350721166947109 0 0)
(0.0009007693387851538 0 0)
(0.0009630612364811288 0 0)
(0.001020673478819795 0 0)
(0.001072678325767825 0 0)
(0.001117658252285656 0 0)
(0.001154622783945643 0 0)
(0.001182177710238611 0 0)
(0.001199443115556034 0 0)
(0.001205215102713741 0 0)
(0.00119886884245971 0 0)
(0.001179517881740228 0 0)
(0.001146976760223239 0 0)
(0.001101139630563848 0 0)
(0.00104343672158794 0 0)
(0.0009767567075038518 0 0)
(0.0009058984786430075 0 0)
(0.0008339830652565749 0 0)
(0.000762143512492784 0 0)
(0.0006902786360086268 0 0)
(0.0006187210928951812 0 0)
(0.0005475845335292145 0 0)
(0.0004774587488492422 0 0)
(0.000408767725753821 0 0)
(0.0003424125438348467 0 0)
(0.0002791282408217642 0 0)
(0.0002201048646598513 0 0)
(0.0001663332180975398 0 0)
(0.0001192047029207965 0 0)
(7.98457023968455e-05 0 0)
(4.969926689192882e-05 0 0)
(2.98580792863594e-05 0 0)
(2.164197709241744e-05 0 0)
(2.593479839084688e-05 0 0)
(4.37384297213036e-05 0 0)
(7.543002806686307e-05 0 0)
(0.0001210559329102798 0 0)
(0.0001790309101731197 0 0)
(0.0002459418906363984 0 0)
(0.0003167456665806103 0 0)
(0.0003883957618433018 0 0)
(0.0004599797231862662 0 0)
(0.0005315661709758039 0 0)
(0.0006028240508501481 0 0)
(0.0006736408406253615 0 0)
(0.0007434037102989133 0 0)
(0.0008117109356480666 0 0)
(0.0008776521075023428 0 0)
(0.0009405390471146136 0 0)
(0.0009991987800822904 0 0)
(0.001052721280898354 0 0)
(0.001099766276134274 0 0)
(0.001139323451003424 0 0)
(0.001170026445054577 0 0)
(0.001190918397511323 0 0)
(0.00120076253140668 0 0)
(0.001198800168980457 0 0)
(0.001184060994931843 0 0)
(0.001156169217177708 0 0)
(0.001114820366812938 0 0)
(0.001061001619052097 0 0)
(0.0009970795170693267 0 0)
(0.0009276552804935143 0 0)
(0.0008565359664188533 0 0)
(0.000785380669188865 0 0)
(0.0007141871993603849 0 0)
(0.0006432343120858751 0 0)
(0.0005726082019753138 0 0)
(0.0005028272346154714 0 0)
(0.0004342709546119453 0 0)
(0.0003677572381397714 0 0)
(0.0003039670782361634 0 0)
(0.0002440076827722529 0 0)
(0.000188822620135653 0 0)
(0.0001397416801699334 0 0)
(9.787514264651375e-05 0 0)
(6.465254736063756e-05 0 0)
(4.120580898145181e-05 0 0)
(2.890441833423951e-05 0 0)
(2.873139025898772e-05 0 0)
(4.180360411982686e-05 0 0)
(6.867891216570732e-05 0 0)
(0.0001096745333755947 0 0)
(0.0001636891472045777 0 0)
(0.0002279078785573211 0 0)
(0.0002973624106448695 0 0)
(0.0003682534454657685 0 0)
(0.00043915345798537 0 0)
(0.0005100742121764564 0 0)
(0.0005807380386975509 0 0)
(0.0006510502555438197 0 0)
(0.0007204758745112705 0 0)
(0.0007886429213012076 0 0)
(0.0008547298885054707 0 0)
(0.0009180861390068659 0 0)
(0.0009776280132779164 0 0)
(0.001032475489441717 0 0)
(0.001081357114636731 0 0)
(0.001123261652976842 0 0)
(0.001156848754700208 0 0)
(0.001181109143613193 0 0)
(0.001194777295450405 0 0)
(0.001196993092405416 0 0)
(0.0011867146614746 0 0)
(0.001163439341585698 0 0)
(0.001126656871362063 0 0)
(0.001076991597850524 0 0)
(0.001016284884163955 0 0)
(0.0009486745338581097 0 0)
(0.0008785425946627649 0 0)
(0.0008081948402810442 0 0)
(0.0007377916545473147 0 0)
(0.0006675880198747477 0 0)
(0.000597580154306598 0 0)
(0.0005282465971507801 0 0)
(0.000459843930043029 0 0)
(0.0003931595547719132 0 0)
(0.0003288216945516578 0 0)
(0.0002678548496964969 0 0)
(0.0002111709442161196 0 0)
(0.000160175523339518 0 0)
(0.0001158790842242129 0 0)
(7.97736916231193e-05 0 0)
(5.303231691618023e-05 0 0)
(3.712192686748576e-05 0 0)
(3.281431944112792e-05 0 0)
(4.150288458602563e-05 0 0)
(6.383634661530695e-05 0 0)
(0.0001003678964655531 0 0)
(0.0001502119813132964 0 0)
(0.0002113875773612205 0 0)
(0.0002791334511256889 0 0)
(0.0003492311709479248 0 0)
(0.0004196448431663386 0 0)
(0.0004902251362417556 0 0)
(0.0005606638701509461 0 0)
(0.000630921210090177 0 0)
(0.0007007070422198572 0 0)
(0.0007694382191277193 0 0)
(0.000836500202127607 0 0)
(0.0009011693349567001 0 0)
(0.0009626012859699159 0 0)
(0.001019520477420457 0 0)
(0.001070782137430882 0 0)
(0.00111540119227594 0 0)
(0.00115170929494541 0 0)
(0.001178991662540516 0 0)
(0.001195792963768103 0 0)
(0.001201593313285197 0 0)
(0.001194648683764158 0 0)
(0.001174843226116103 0 0)
(0.001141538679052461 0 0)
(0.001094982911296286 0 0)
(0.001036515474104794 0 0)
(0.0009701520628238037 0 0)
(0.0008995252178506514 0 0)
(0.0008281640533709938 0 0)
(0.0007567429307108381 0 0)
(0.0006854514868831602 0 0)
(0.0006141856955347878 0 0)
(0.0005436220099460806 0 0)
(0.0004738958578397249 0 0)
(0.0004056140682250735 0 0)
(0.0003392856534522498 0 0)
(0.0002761889325349433 0 0)
(0.0002169853376530619 0 0)
(0.0001628724957697086 0 0)
(0.0001154856652398062 0 0)
(7.567091770888765e-05 0 0)
(4.505552081782006e-05 0 0)
(2.483236605333626e-05 0 0)
(1.628906374842724e-05 0 0)
(2.035357666075647e-05 0 0)
(3.802436422561064e-05 0 0)
(6.992818524089821e-05 0 0)
(0.0001157328956175849 0 0)
(0.0001735531096381754 0 0)
(0.0002397001813765712 0 0)
(0.0003095272909695124 0 0)
(0.00038014501061519 0 0)
(0.0004510342251348022 0 0)
(0.0005216269028574488 0 0)
(0.0005920902458281005 0 0)
(0.0006618290727961557 0 0)
(0.0007308667314201436 0 0)
(0.0007982067331115451 0 0)
(0.0008634713659504463 0 0)
(0.0009257021687695944 0 0)
(0.0009841649968466714 0 0)
(0.001037123205537843 0 0)
(0.001084267008654503 0 0)
(0.001123500238913066 0 0)
(0.001154187963935506 0 0)
(0.00117487837245197 0 0)
(0.001184885888491696 0 0)
(0.001182781128153189 0 0)
(0.001167947369213377 0 0)
(0.001139771761241773 0 0)
(0.001098431396152449 0 0)
(0.001044488735278359 0 0)
(0.0009812506880120229 0 0)
(0.0009125735775856358 0 0)
(0.0008419552541531287 0 0)
(0.0007713844900411135 0 0)
(0.0007009011199340166 0 0)
(0.0006305339977967575 0 0)
(0.0005605054793574839 0 0)
(0.0004915057543722607 0 0)
(0.0004236879953227478 0 0)
(0.000357618287747542 0 0)
(0.0002942368856389552 0 0)
(0.0002346183743452222 0 0)
(0.0001793117830204582 0 0)
(0.0001301942887255287 0 0)
(8.831447182131761e-05 0 0)
(5.472994544131673e-05 0 0)
(3.128881293107864e-05 0 0)
(1.87312609768128e-05 0 0)
(1.874869816876509e-05 0 0)
(3.17304275806506e-05 0 0)
(5.878855937560438e-05 0 0)
(9.977971918285095e-05 0 0)
(0.0001537503787022564 0 0)
(0.0002171355783462745 0 0)
(0.0002860905156063682 0 0)
(0.0003560836222858569 0 0)
(0.000426644469510614 0 0)
(0.0004970299117709146 0 0)
(0.000567137198819386 0 0)
(0.0006366675840877233 0 0)
(0.0007055021121015029 0 0)
(0.0007728725684920527 0 0)
(0.0008383479804589607 0 0)
(0.0009009762203458426 0 0)
(0.0009602651150239676 0 0)
(0.001014598471174352 0 0)
(0.001063390444944354 0 0)
(0.001105265109195405 0 0)
(0.001138605185221384 0 0)
(0.001162757147783156 0 0)
(0.001176328329777172 0 0)
(0.001178671460288442 0 0)
(0.001168249415489243 0 0)
(0.001144859721737272 0 0)
(0.001108249445726475 0 0)
(0.001058912377452246 0 0)
(0.0009987203927728447 0 0)
(0.0009320695744224505 0 0)
(0.0008623058639033407 0 0)
(0.000792042693634247 0 0)
(0.00072213859669434 0 0)
(0.0006523103515007348 0 0)
(0.0005826655467932289 0 0)
(0.0005139569090142978 0 0)
(0.0004464316790263061 0 0)
(0.000380398245788513 0 0)
(0.0003167238690621803 0 0)
(0.0002563204506322768 0 0)
(0.0002001830750232599 0 0)
(0.0001491709481165588 0 0)
(0.000105319720464983 0 0)
(6.888535634616653e-05 0 0)
(4.213898018691954e-05 0 0)
(2.580970213759856e-05 0 0)
(2.144590349096733e-05 0 0)
(2.978501504810081e-05 0 0)
(5.185784327938851e-05 0 0)
(8.781968361746021e-05 0 0)
(0.0001372928804327828 0 0)
(0.00019750741556372 0 0)
(0.0002645842100266253 0 0)
(0.0003340999649873078 0 0)
(0.0004037934298609375 0 0)
(0.0004738334591148654 0 0)
(0.0005435923254154984 0 0)
(0.0006125870725931847 0 0)
(0.0006811969278681642 0 0)
(0.0007484600101944301 0 0)
(0.0008139082723762124 0 0)
(0.0008768530073678017 0 0)
(0.0009365488098355464 0 0)
(0.0009921310322113584 0 0)
(0.00104210296684086 0 0)
(0.001085972691544662 0 0)
(0.001122039964298332 0 0)
(0.001149104459401825 0 0)
(0.001166238228233994 0 0)
(0.001172336566124954 0 0)
(0.001166434212281061 0 0)
(0.001147570776603531 0 0)
(0.001115713113405827 0 0)
(0.00107083820186885 0 0)
(0.001014450089312103 0 0)
(0.0009497943758152176 0 0)
(0.0008812689304270347 0 0)
(0.0008113473425052829 0 0)
(0.0007416786842323506 0 0)
(0.0006723368217071925 0 0)
(0.0006030047753396053 0 0)
(0.0005345855495513875 0 0)
(0.0004670874710527704 0 0)
(0.000401106606979895 0 0)
(0.0003371672810185824 0 0)
(0.000276033730380364 0 0)
(0.0002190666234226518 0 0)
(0.0001664239132436203 0 0)
(0.0001204691638142364 0 0)
(8.189455248154555e-05 0 0)
(5.173514117321356e-05 0 0)
(3.183779199184227e-05 0 0)
(2.324297112453637e-05 0 0)
(2.708159172502869e-05 0 0)
(4.41060862240082e-05 0 0)
(7.502555744830091e-05 0 0)
(0.0001195895482754508 0 0)
(0.0001761889699267549 0 0)
(0.0002407121588410089 0 0)
(0.0003093345097964022 0 0)
(0.0003785609358751925 0 0)
(0.0004475934608476231 0 0)
(0.0005170239860829752 0 0)
(0.0005856489672606084 0 0)
(0.0006537314515739071 0 0)
(0.0007207229595766868 0 0)
(0.000786235316916939 0 0)
(0.0008492811976173694 0 0)
(0.0009093864840811265 0 0)
(0.000965744549116479 0 0)
(0.001016938053052695 0 0)
(0.001062535066605974 0 0)
(0.001100901579508424 0 0)
(0.00113057982231718 0 0)
(0.001150993327788309 0 0)
(0.001160796116557113 0 0)
(0.001159035648581885 0 0)
(0.001144636917946834 0 0)
(0.001117381694006352 0 0)
(0.001077047424154769 0 0)
(0.001024688558447492 0 0)
(0.0009626370546988193 0 0)
(0.0008954636263139172 0 0)
(0.0008262415531494284 0 0)
(0.000756605893107786 0 0)
(0.00068757888024243 0 0)
(0.000618825273733034 0 0)
(0.0005501429423171277 0 0)
(0.0004830022155026685 0 0)
(0.0004170104656403775 0 0)
(0.0003527964711375049 0 0)
(0.0002911281730947936 0 0)
(0.0002331299341427788 0 0)
(0.0001793658078696645 0 0)
(0.0001314609089079888 0 0)
(9.046215217274571e-05 0 0)
(5.747334626700106e-05 0 0)
(3.405896489366392e-05 0 0)
(2.153266755378524e-05 0 0)
(2.068060359761425e-05 0 0)
(3.296286995738031e-05 0 0)
(5.874630427582643e-05 0 0)
(9.827994232635283e-05 0 0)
(0.0001504928159969967 0 0)
(0.000212355797069668 0 0)
(0.0002792625848609066 0 0)
(0.000348000682265754 0 0)
(0.0004164013216573986 0 0)
(0.0004849531906998368 0 0)
(0.0005534822592877511 0 0)
(0.0006206599653354473 0 0)
(0.000687796325069734 0 0)
(0.0007529640385561432 0 0)
(0.000816146113496531 0 0)
(0.0008765421560177289 0 0)
(0.000933404067922491 0 0)
(0.0009858573127296997 0 0)
(0.001032514715070239 0 0)
(0.001072917607543106 0 0)
(0.001105305421091616 0 0)
(0.001128595183416382 0 0)
(0.001141758795247193 0 0)
(0.001143944117039113 0 0)
(0.00113388353764088 0 0)
(0.00111111273862599 0 0)
(0.001075395383972653 0 0)
(0.001027178518885625 0 0)
(0.0009684455120413466 0 0)
(0.000902732608329172 0 0)
(0.0008343558021449357 0 0)
(0.0007652969785693124 0 0)
(0.00069594086162459 0 0)
(0.0006276799689375006 0 0)
(0.0005591058804181341 0 0)
(0.0004921847633696714 0 0)
(0.0004259392229658265 0 0)
(0.0003616956803586893 0 0)
(0.000299517234407202 0 0)
(0.0002405756578425695 0 0)
(0.0001858995956873867 0 0)
(0.0001358801461230984 0 0)
(9.282529857834127e-05 0 0)
(5.742168154744276e-05 0 0)
(3.039794877907603e-05 0 0)
(1.41009575355404e-05 0 0)
(9.241804449738108e-06 0 0)
(1.656837518234726e-05 0 0)
(3.728962707752207e-05 0 0)
(7.168082832332132e-05 0 0)
(0.0001191359830285096 0 0)
(0.0001776327428166796 0 0)
(0.0002425118078042865 0 0)
(0.0003103470650119756 0 0)
(0.000378445948189384 0 0)
(0.0004459294042571477 0 0)
(0.0005140345630507624 0 0)
(0.0005811456685603485 0 0)
(0.0006472699887242291 0 0)
(0.0007125293353097227 0 0)
(0.0007757329708536166 0 0)
(0.000836284756370945 0 0)
(0.0008935965017255558 0 0)
(0.0009469799234977196 0 0)
(0.0009947506846269061 0 0)
(0.001037084861238779 0 0)
(0.001071608690716077 0 0)
(0.001097528831492678 0 0)
(0.001113955578813819 0 0)
(0.001119878557298598 0 0)
(0.001113771423121657 0 0)
(0.001095487565035232 0 0)
(0.001064328953085429 0 0)
(0.001020531350934505 0 0)
(0.0009652965516355063 0 0)
(0.0009019613239802824 0 0)
(0.0008343088354039398 0 0)
(0.0007657293377275449 0 0)
(0.0006968253759336714 0 0)
(0.000628046466667757 0 0)
(0.0005604037195809261 0 0)
(0.0004924235476504758 0 0)
(0.0004269842466909877 0 0)
(0.0003623275708088417 0 0)
(0.0002998136884011692 0 0)
(0.000240081888867102 0 0)
(0.0001843021936532084 0 0)
(0.0001329468385539749 0 0)
(8.779537720318909e-05 0 0)
(4.970770079644135e-05 0 0)
(2.002942818218322e-05 0 0)
(-1.912247878889469e-07 0 0)
(-9.104871380488247e-06 0 0)
(-6.305664328000208e-06 0 0)
(9.454629843542923e-06 0 0)
(3.873991487679047e-05 0 0)
(8.128199604671217e-05 0 0)
(0.0001356087498998759 0 0)
(0.0001983271099830525 0 0)
(0.0002644619698303922 0 0)
(0.0003322132616717643 0 0)
(0.0003995395236561636 0 0)
(0.0004660642941251271 0 0)
(0.0005334715892757632 0 0)
(0.0005985486570983491 0 0)
(0.0006642749406748065 0 0)
(0.0007269504541634132 0 0)
(0.0007877506545048779 0 0)
(0.0008453316958860976 0 0)
(0.000899267902838906 0 0)
(0.0009485042600144262 0 0)
(0.0009916808237713606 0 0)
(0.001028517940568294 0 0)
(0.001057180751074831 0 0)
(0.001076207284063577 0 0)
(0.001085496765628899 0 0)
(0.001083797551113872 0 0)
(0.001069435647410427 0 0)
(0.00104274963682364 0 0)
(0.001003428775025369 0 0)
(0.0009521175984397594 0 0)
(0.0008914709829715708 0 0)
(0.000825111690200737 0 0)
(0.0007571302342845206 0 0)
(0.0006885752045943885 0 0)
(0.0006197444075108573 0 0)
(0.0005518512042207891 0 0)
(0.00048458042421932 0 0)
(0.0004180427500067929 0 0)
(0.0003537446920164283 0 0)
(0.0002909063327751341 0 0)
(0.0002305360740003973 0 0)
(0.0001736364672397879 0 0)
(0.0001213083606556082 0 0)
(7.380982368729316e-05 0 0)
(3.365067039177737e-05 0 0)
(1.057338201750371e-06 0 0)
(-2.255031683813231e-05 0 0)
(-3.548173449560829e-05 0 0)
(-3.665471772495825e-05 0 0)
(-2.603798112713162e-05 0 0)
(-1.833559194849878e-06 0 0)
(3.57137712915556e-05 0 0)
(8.556161706060556e-05 0 0)
(0.0001449961185142077 0 0)
(0.0002099087035070324 0 0)
(0.0002761369894651426 0 0)
(0.0003432748481358774 0 0)
(0.0004098018750934211 0 0)
(0.0004753686148927063 0 0)
(0.0005418271414373315 0 0)
(0.0006049813779804723 0 0)
(0.0006693985329892955 0 0)
(0.0007296302088240269 0 0)
(0.0007874356099541974 0 0)
(0.0008418050629384674 0 0)
(0.0008919661036642213 0 0)
(0.000936560193932788 0 0)
(0.0009751964486094531 0 0)
(0.001006054579538389 0 0)
(0.001028317267389306 0 0)
(0.001040197125169299 0 0)
(0.001041977270452819 0 0)
(0.001032221268940096 0 0)
(0.001009572288863085 0 0)
(0.000974676851703183 0 0)
(0.000927567075560895 0 0)
(0.0008699386096986454 0 0)
(0.0008056787613176362 0 0)
(0.0007379015534085419 0 0)
(0.000670038116822286 0 0)
(0.0006019789560320354 0 0)
(0.0005329762235548724 0 0)
(0.0004663175225853532 0 0)
(0.0003988323493360285 0 0)
(0.0003352719325743951 0 0)
(0.0002714694965586892 0 0)
(0.0002108697446456326 0 0)
(0.0001530859574718263 0 0)
(9.927243338739292e-05 0 0)
(5.084239974302189e-05 0 0)
(7.728242801133829e-06 0 0)
(-2.735662627958573e-05 0 0)
(-5.39708441227559e-05 0 0)
(-7.119718015002793e-05 0 0)
(-7.651617954014608e-05 0 0)
(-6.972475958517022e-05 0 0)
(-5.093346823762746e-05 0 0)
(-1.851341010012319e-05 0 0)
(2.673841332667204e-05 0 0)
(8.24726631579163e-05 0 0)
(0.0001450486277185956 0 0)
(0.0002105003514226388 0 0)
(0.0002763117569193754 0 0)
(0.0003426343831916401 0 0)
(0.0004084603018272986 0 0)
(0.0004724982350615797 0 0)
(0.0005382616015085263 0 0)
(0.0005990738518438336 0 0)
(0.0006623772122801896 0 0)
(0.0007190114422887852 0 0)
(0.0007737815389985039 0 0)
(0.0008243025164979373 0 0)
(0.0008705904934392455 0 0)
(0.0009102129946661752 0 0)
(0.0009436039041294243 0 0)
(0.0009683566607539086 0 0)
(0.0009838348581679966 0 0)
(0.0009886157967701828 0 0)
(0.0009825081357134181 0 0)
(0.0009641155893478364 0 0)
(0.0009334147256170759 0 0)
(0.0008906857905006067 0 0)
(0.0008366501097308771 0 0)
(0.0007743775966738934 0 0)
(0.0007081314711011423 0 0)
(0.0006399681719326505 0 0)
(0.0005722796280140678 0 0)
(0.0005048968493265966 0 0)
(0.000436175137015993 0 0)
(0.0003703380071331749 0 0)
(0.0003031622102446894 0 0)
(0.0002428638311265743 0 0)
(0.0001790720343874964 0 0)
(0.000121101600893716 0 0)
(6.61305147662772e-05 0 0)
(1.708612394948359e-05 0 0)
(-2.808101042382765e-05 0 0)
(-6.558758478874802e-05 0 0)
(-9.582206672638159e-05 0 0)
(-0.0001161659949371739 0 0)
(-0.0001267728521916783 0 0)
(-0.0001234564847033734 0 0)
(-0.0001083587713748783 0 0)
(-8.149969106860923e-05 0 0)
)
;

boundaryField
{
    inlet
    {
        type            calculated;
        value           uniform (0.001242878988710317 0 0);
    }
    outlet
    {
        type            calculated;
        value           uniform (-6.179997295707741e-05 0 0);
    }
    frontAndBack
    {
        type            empty;
    }
}


// ************************************************************************* //
