/*--------------------------------*- C++ -*----------------------------------*\
| =========                 |                                                 |
| \\      /  F ield         | OpenFOAM: The Open Source CFD Toolbox           |
|  \\    /   O peration     | Version:  v2012                                 |
|   \\  /    A nd           | Website:  www.openfoam.com                      |
|    \\/     M anipulation  |                                                 |
\*---------------------------------------------------------------------------*/
FoamFile
{
    version     2.0;
    format      ascii;
    class       volScalarField;
    location    "0.007";
    object      p;
}
// * * * * * * * * * * * * * * * * * * * * * * * * * * * * * * * * * * * * * //

dimensions      [1 -1 -2 0 0 0 0];


internalField   nonuniform List<scalar> 
1000
(
101311.5900349836
101314.2326595493
101307.4577645495
101302.1353726291
101296.2357255405
101290.9102904088
101286.3140747131
101282.3806256523
101278.9662297847
101276.5842005744
101275.8714763896
101275.866345454
101276.1789712317
101277.0898865747
101278.9490208021
101281.8519153755
101285.6966549342
101290.2989460901
101295.5027099395
101301.2028458123
101307.317174916
101313.7586519677
101320.424191952
101327.1925049788
101333.9265121406
101340.4846551998
101346.7442595784
101352.6350049879
101358.1657760489
101363.3831593291
101368.1413553095
101371.7041072698
101373.216182522
101373.3953199011
101373.3339627713
101373.1183157066
101372.4670197239
101371.1423160332
101368.90593355
101365.627976209
101361.3260838578
101356.1546519136
101350.3349929923
101344.0757447704
101337.5330614256
101330.8190079889
101324.030131394
101317.2684160644
101310.6426671631
101304.2432761892
101298.0977216887
101292.1625882222
101286.4602654077
101281.4425615073
101278.1920913975
101277.1638865313
101277.0986194985
101277.1264234902
101277.3526225061
101277.9117257328
101279.036837893
101280.9377601005
101283.7836125684
101287.6508486827
101292.497967181
101298.1714573888
101304.447300197
101311.0910238848
101317.9053494137
101324.7445210876
101331.5050044434
101338.1214928671
101344.5798064113
101350.9206075506
101357.1849345345
101363.2382303144
101368.4317788428
101371.5868570235
101372.4970439359
101372.5556194019
101372.4998834033
101372.3268938568
101371.8508656509
101370.9056161152
101369.2932062866
101366.8355714765
101363.4065587017
101358.9683539943
101353.5890289365
101347.4338889221
101340.7336455995
101333.7386624968
101326.6702529552
101319.6821432396
101312.8431826921
101306.1424835663
101299.5160279337
101292.9262613624
101286.5887087531
101281.3558062253
101278.4784863185
101277.7946553208
101277.7749447439
101277.8051007925
101277.9888689945
101278.4292932821
101279.2978220707
101280.7672358716
101283.0059992906
101286.1474174267
101290.2614539402
101295.3300328346
101301.2376266083
101307.7865744032
101314.7349218854
101321.8441469897
101328.9253944592
101335.8771003047
101342.7011569312
101349.4735137066
101356.2354420311
101362.7517585279
101368.1516767177
101371.1692302675
101371.9304976074
101371.9711782766
101371.9272987461
101371.7893011684
101371.4165212489
101370.6771693801
101369.4085721712
101367.4471380526
101364.6465768178
101360.9055883875
101356.1925893511
101350.5621057564
101344.1581010434
101337.1972504765
101329.9268058849
101322.565341724
101315.2502390276
101308.0169999153
101300.8288204131
101293.6917759667
101286.9353600871
101281.5871675054
101278.8723846008
101278.2989612804
101278.2866151191
101278.3128279216
101278.4628336301
101278.8206888951
101279.5245808376
101280.7197686277
101282.5578434971
101285.1773586291
101288.6836007754
101293.1250599963
101298.4739306228
101304.6200839659
101311.3833658196
101318.5435181051
101325.885670141
101333.2536289152
101340.5871606839
101347.9053137956
101355.1921572177
101362.1300638028
101367.738058337
101370.7478170801
101371.4702300464
101371.5075976689
101371.4731042311
101371.3638803546
101371.0655678608
101370.4697166055
101369.4387305321
101367.8270686617
101365.491955825
101362.3130048693
101358.2125690609
101353.1744516229
101347.2580245059
101340.6000573434
101333.3939695564
101325.8457399203
101318.1221004879
101310.3167471262
101302.4663512901
101294.6712524707
101287.4045248633
101281.8607996476
101279.2208549135
101278.7096348544
101278.700110892
101278.7221690923
101278.846524539
101279.1429465759
101279.7268098382
101280.7224362498
101282.2647625411
101284.4862191737
101287.5024108057
101291.3932356102
101296.1840521601
101301.8338596638
101308.2349780991
101315.2263207137
101322.623629156
101330.2651390237
101338.052288301
101345.9434464241
101353.8441747696
101361.3271426339
101367.271922046
101370.3702787859
101371.0892562432
101371.1262934634
101371.0987533272
101371.0112189246
101370.7681457545
101370.2786864768
101369.4249202068
101368.0780774251
101366.1048228545
101363.3812773238
101359.8085483772
101355.3288722691
101349.9410832728
101343.7095395247
101336.7567542726
101329.2359560641
101321.2927468486
101313.0362132636
101304.5541718211
101296.0416916137
101288.1356184923
101282.237324091
101279.5466652509
101279.0539357303
101279.0443526631
101279.0626249779
101279.1667528454
101279.4158382301
101279.9080733834
101280.7509406119
101282.0642095313
101283.9708372525
101286.5868364021
101290.00665174
101294.2872073141
101299.435695673
101305.4043240735
101312.0941736732
101319.3729918362
101327.1085778619
101335.2019612233
101343.5805955492
101352.0891422625
101360.1985250947
101366.6372458478
101369.981261094
101370.7601013865
101370.8025501309
101370.7808181296
101370.7108378204
101370.5109714527
101370.1039702189
101369.3876844763
101368.2482521658
101366.5634894973
101364.212849285
101361.0888200514
101357.1097087343
101352.2334566828
101346.4681388681
101339.8711256876
101332.5332269126
101324.5540150955
101316.0240401471
101307.0470527575
101297.8778980393
101289.2781494605
101282.8421637956
101279.9028114756
101279.3573775507
101279.3427912299
101279.3568873867
101279.4431925563
101279.6527659876
101280.0709657285
101280.7917914081
101281.9218293851
101283.5738178233
101285.8595736993
101288.8788933396
101292.7068408099
101297.3830826462
101302.9052543217
101309.2280441227
101316.2728365494
101323.9504775238
101332.1845080682
101340.8996766815
101349.913985911
101358.64528036
101365.7166111102
101369.5156221272
101370.4571217208
101370.5168758713
101370.5003281695
101370.445959515
101370.2823143024
101369.9427878628
101369.3376342888
101368.3656709869
101366.9156868767
101364.8734584493
101362.129751516
101358.5899127931
101354.185199112
101348.8825037989
101342.6862643076
101335.630061586
101327.7627163183
101319.1406643685
101309.856018791
101300.1762393292
101290.9074200475
101283.7661165212
101280.3372633914
101279.6404640867
101279.6125282599
101279.6221660654
101279.691774247
101279.8660938154
101280.2210337019
101280.8398910667
101281.8183136306
101283.2594595093
101285.2691205286
101287.9474022992
101291.3790388529
101295.6248612707
101300.7153228698
101306.6473336492
101313.3889140729
101320.8940927641
101329.1175521916
101337.9995276991
101347.3648365812
101356.6414951333
101364.4321994548
101368.9087332556
101370.1557215426
101370.2556231506
101370.2437565927
101370.2036589517
101370.0716920842
101369.789870208
101369.2780470846
101368.4455219144
101367.1909395135
101365.4072590799
101362.9870966603
101359.8296611109
101355.8496347198
101350.9852809893
101345.2011881593
101338.4845417023
101330.8387802307
101322.2828438356
101312.8806699706
101302.8721902964
101293.0247874628
101285.0714218054
101280.9059397167
101279.9222996372
101279.8643833724
101279.8697768499
101279.9239065054
101280.0659175048
101280.3648420055
101280.8953870326
101281.7443571161
101283.0065705015
101284.7814916699
101287.1670202086
101290.2523722166
101294.1116016206
101298.7978179444
101304.3391505245
101310.7405809977
101317.9934424175
101326.0837355121
101334.9759528944
101344.5249261307
101354.2213001042
101362.7417103388
101368.0881693171
101369.8257689091
101370.0094741549
101370.0024142043
101369.9751608884
101369.8710891152
101369.6397926575
101369.2084978712
101368.4951046762
101367.4067285976
101365.8432968763
101363.7009238665
101360.8768407201
101357.2761899345
101352.8183468409
101347.4396004135
101341.092281402
101333.743243006
101325.3767776222
101316.0218413574
101305.8667571232
101295.5798421825
101286.7981672135
101281.6804778268
101280.227571387
101280.105177835
101280.1065149598
101280.1469196586
101280.2594716412
101280.5080810472
101280.9604299864
101281.6962036627
101282.8031926023
101284.374933163
101286.5060525945
101289.2871969874
101292.8002254242
101297.1131928698
101302.2762221517
101308.3219424117
101315.2714098781
101323.1380959971
101331.9127357778
101341.4912077752
101351.4569854604
101360.6375232649
101366.9767581716
101369.4237733641
101369.7696021024
101369.7714974873
101369.7549516429
101369.6750944086
101369.4882941542
101369.1275027186
101368.5177594612
101367.5733496403
101366.2005434123
101364.2995822947
101361.7682037229
101358.5067550386
101354.4228466264
101349.4336316174
101343.4666421414
101336.461034011
101328.3718574893
101319.1931362395
101309.0531258128
101298.4909965291
101288.9569650585
101282.7427205135
101280.5947890773
101280.3402573944
101280.3364435242
101280.3651121998
101280.4513699139
101280.6548580542
101281.0372653579
101281.672535395
101282.6425527658
101284.0355459789
101285.9425612571
101288.4539455892
101291.6557594933
101295.6254373407
101300.4280143479
101306.1160241774
101312.7330190051
101320.3147194369
101328.8761187145
101338.3557132194
101348.4385051461
101358.1476028996
101365.506722344
101368.8860317048
101369.5250884477
101369.5482507283
101369.5396227523
101369.4804317731
101369.3326009577
101369.0338208701
101368.5152454542
101367.6972272307
101366.4916876999
101364.8031380521
101362.5312719787
101359.5747392085
101355.834362638
101351.2149845083
101345.6272940798
101338.9903845076
101331.2360000223
101322.3271465289
101312.3342887672
101301.6627436548
101291.5228633749
101284.1691849531
101281.0827131382
101280.5771710533
101280.5621189519
101280.5808535153
101280.6442058989
101280.8076866862
101281.1274522536
101281.6727693024
101282.520494408
101283.7541565158
101285.4612684108
101287.7309305672
101290.6510480964
101294.3045713188
101298.7663219483
101304.1027703446
101310.3738556873
101317.632371039
101325.9138373508
101335.1953726864
101345.2573068279
101355.3300415719
101363.6367215832
101368.1318964624
101369.2548566822
101369.3306901436
101369.3275461816
101369.2852208678
101369.1712447853
101368.9269086384
101368.4889228246
101367.7828576663
101366.7256573652
101365.2260430773
101363.1864892373
101360.5059075207
101357.0817092392
101352.8113303345
101347.5945784676
101341.3365285397
101333.9511011076
101325.3757769764
101315.6310421626
101304.9997922361
101294.4386058881
101286.0110151228
101281.7706050788
101280.8343887346
101280.7833854316
101280.7953860178
101280.8393398137
101280.9677770148
101281.2316843555
101281.6962910032
101282.4340540698
101283.5243303309
101285.0512829364
101287.1022567402
101289.7654749064
101293.1268035841
101297.2672786909
101302.2628874152
101308.1851077215
101315.0993280969
101323.05752009
101332.069034967
101341.9955748702
101352.2614774845
101361.3641660613
101367.0747865724
101368.9197730973
101369.1158262733
101369.1179408202
101369.0888535022
101369.00371791
101368.8069013946
101368.4402174356
101367.8338005068
101366.9091332432
101365.5790152031
101363.7491442221
101361.319896832
101358.187531011
101354.2455370197
101349.3871554267
101343.5080052368
101336.5088494081
101328.3073084766
101318.8834819763
101308.4168201759
101297.6255526535
101288.2802716742
101282.7504947862
101281.1444490023
101281.0019819081
101281.0088263117
101281.0370876036
101281.1354539302
101281.3498718236
101281.7421575656
101282.3807202517
101283.3411640245
101284.7045175347
101286.5560884701
101288.9834332737
101292.0736317547
101295.9114983382
101300.5793192659
101306.156410324
101312.7171861919
101320.3263503017
101329.0186869962
101338.7209428619
101349.0241752077
101358.7253077452
101365.640884371
101368.4573530847
101368.8976936359
101368.9098341391
101368.8912997443
101368.830270616
101368.6744614584
101368.3707309877
101367.8531798015
101367.0474654596
101365.8703326547
101364.2309143293
101362.0317709941
101359.1695194962
101355.5361223231
101351.0212964814
101345.5145564764
101338.9073155724
101331.1024556753
101322.0489159219
101311.8432420194
101300.997430748
101290.9473940178
101284.1066776458
101281.5628630908
101281.2230902083
101281.221115556
101281.2370394198
101281.3103207436
101281.4813774657
101281.8091027825
101282.3581316
101283.2006278794
101284.4146717303
101286.0833682902
101288.2929750508
101291.1306950708
101294.6834679518
101299.0375449944
101304.2773365255
101310.4835931786
101317.7306377073
101326.072469073
101335.4854120438
101345.6954836407
101355.7852795939
101363.7893728979
101367.7846993041
101368.657380138
101368.7043011028
101368.6926921744
101368.6514377222
101368.5306521002
101368.2822333897
101367.8438846053
101367.1451740038
101366.106660255
101364.6409847015
101362.6533116788
101360.0416416407
101356.6980845127
101352.5109355038
101347.3660431795
101341.1485220148
101333.7508124471
101325.0985675644
101315.2242827874
101304.4718087722
101293.949220322
101285.894241747
101282.1708782808
101281.4592699906
101281.4312749829
101281.4390002858
101281.4916215805
101281.6251212777
101281.8955806666
101282.3639267208
101283.0991652912
101284.1765584628
101285.6768901373
101287.6847205672
101290.2866917636
101293.5707296638
101297.6253502934
101302.5380816842
101308.3940615156
101315.2747231457
101323.2480351938
101332.3267910858
101342.3415770514
101352.6240596326
101361.5226378813
101366.8091976088
101368.3598968415
101368.5002225504
101368.493709243
101368.4680435221
101368.3766752432
101368.17659215
101367.8086498216
101367.2062269084
101366.293571399
101364.9868172503
101363.1939779166
101360.8151432467
101357.7437138355
101353.8679890889
101349.0719374931
101343.2367971708
101336.2479917818
101328.014169085
101318.5196506679
101307.9770629801
101297.2035209534
101288.125333305
101283.0639230636
101281.7385006999
101281.6398421029
101281.6420953644
101281.6785404175
101281.7798338978
101281.9998591322
101282.3957502051
101283.0335240912
101283.985714083
101285.3306938805
101287.1510832778
101289.5325306621
101292.5631334584
101296.3324334893
101300.9296976102
101306.4430619568
101312.9590658508
101320.5554538887
101329.2711462658
101339.0152404244
101349.3230437395
101358.8831765202
101365.451855754
101367.9463899579
101368.2919438752
101368.2950518149
101368.2812075815
101368.2139182511
101368.0556805883
101367.7500861047
101367.2342204917
101366.4359031154
101365.2746994047
101363.6616172932
101361.4993285198
101358.6832860115
101355.1027519784
101350.641150637
101345.1777511232
101338.5935799114
101330.785093807
101321.7011443971
101311.4553212569
101300.623615401
101290.7667914701
101284.3316544026
101282.1131710691
101281.8497181892
101281.8458004616
101281.8698032337
101281.9440969587
101282.1201379081
101282.4512548235
101283.0006591386
101283.8381646227
101285.0396687592
101286.6857159261
101288.8606800695
101291.6522224811
101295.1500109372
101299.444115392
101304.6246750979
101310.7817301008
101317.9995731783
101326.335495481
101335.7562041639
101345.9557465598
101355.9419503953
101363.6684016411
101367.3329208207
101368.0656933747
101368.0977818574
101368.0915406674
101368.0437451008
101367.9213996073
101367.6706806443
101367.2324418335
101366.5379171408
101365.5100305424
101364.0628829039
101362.1020640735
101359.5255595014
101356.224236928
101352.0820034015
101346.9776431374
101340.7897223936
101333.4061219036
101324.7500950811
101314.8624393742
101304.1287967762
101293.7507855771
101286.0351917884
101282.6618209765
101282.0705493066
101282.0497961043
101282.0644366384
101282.1164080026
101282.2545999422
101282.5281573575
101282.9976812627
101283.7302693535
101284.7992921929
101286.2831476326
101288.2647289876
101290.8307861616
101294.0704754591
101298.0740527322
101302.9329129864
101308.7393060159
101315.5817001665
101323.5301635036
101332.5929090603
101342.5833113035
101352.7825111731
101361.4593856562
101366.4255881856
101367.7904515122
101367.9012254415
101367.9001964583
101367.8673785077
101367.7755163049
101367.5727789208
101367.2039173558
101366.6034628232
101365.6976105035
101364.4036152776
101362.6302016961
101360.2781744633
101357.2404589997
101353.4022572242
101348.6429904821
101342.8401562469
101335.8757818945
101327.6550740984
101318.1664369645
101307.6504276886
101296.9909826843
101288.1899215701
101283.4805616287
101282.3289599207
101282.2525667598
101282.2613898226
101282.2954979246
101282.4014386377
101282.6242211306
101283.0218691151
101283.6586897779
101284.6055126407
101285.9385546569
101287.7390627014
101290.0925039608
101293.0870894411
101296.8128542102
101301.3618487012
101306.827494934
101313.3007589433
101320.8605482159
101329.5445115801
101339.2531645758
101349.487435939
101358.868203479
101365.1417983045
101367.4100551032
101367.7022388372
101367.7077849401
101367.6864432972
101367.6199254692
101367.4587158855
101367.1515723934
101366.636129176
101365.841809648
101364.6890628409
101363.0898639551
101360.9479867029
101358.158741892
101354.6092659649
101350.1804373856
101344.749677733
101338.195245926
101330.4100056203
101321.3452948079
101311.1338552965
101300.3974306867
101290.7643352256
101284.6640650742
101282.6724934894
101282.4567990978
101282.4600048942
101282.4801619206
101282.5593794084
101282.737924002
101283.0715860313
101283.6218392399
101284.4570872756
101285.6515051864
101287.2847071893
101289.440851526
101292.2073629889
101295.6743253254
101299.9345365026
101305.0825656626
101311.2117576495
101318.4078184919
101326.7279832082
101336.129326969
101346.2640198335
101356.0462399943
101363.3606634531
101366.6076231745
101367.1911803944
101367.2124509342
101367.1985225654
101367.1480163555
101367.013252471
101366.7451861877
101366.2832818317
101365.5603754513
101364.5029300355
101363.0326310803
101361.0684476451
101358.5296996039
101355.3409058937
101351.4407921972
101346.8028607199
101341.4888752807
101335.7834793391
101330.441708786
101326.7172320175
101325.2431988481
101325.0101696521
101325.000081587
101325.0000000795
101324.9999999949
101324.9999999947
101324.9999999948
101324.9999999947
101324.9999999945
101324.9999999943
101324.9999999943
101324.9999999942
101324.9999999942
101324.999999994
101324.9999999939
101324.999999994
101324.9999999939
101324.9999999939
101324.9999999938
101324.9999999941
101324.9999999941
101324.9999999943
101324.9999999945
101324.9999999943
101324.9999999945
)
;

boundaryField
{
    inlet
    {
        type            uniformFixedValue;
        uniformValue    sine;
        uniformValueCoeffs
        {
            frequency       constant 3000;
            scale           constant 50;
            level           constant 101325;
        }
        value           uniform 101325;
    }
    outlet
    {
        type            characteristicVelocityInletOutletPressure;
        UName           U;
        pName           p;
        TName           T;
        phiName         phi;
        rhoName         rho;
        U               (0 0 0);
        p               101325;
        T               300;
        value           uniform 101324.9999999945;
    }
    frontAndBack
    {
        type            empty;
    }
}


// ************************************************************************* //
