/*--------------------------------*- C++ -*----------------------------------*\
| =========                 |                                                 |
| \\      /  F ield         | OpenFOAM: The Open Source CFD Toolbox           |
|  \\    /   O peration     | Version:  v2012                                 |
|   \\  /    A nd           | Website:  www.openfoam.com                      |
|    \\/     M anipulation  |                                                 |
\*---------------------------------------------------------------------------*/
FoamFile
{
    version     2.0;
    format      ascii;
    class       volScalarField;
    location    "0.007";
    object      pMean;
}
// * * * * * * * * * * * * * * * * * * * * * * * * * * * * * * * * * * * * * //

dimensions      [1 -1 -2 0 0 0 0];


internalField   nonuniform List<scalar> 
1000
(
101325.0304172331
101325.0053061565
101325.0249189529
101325.0434721106
101325.0700137482
101325.1020571998
101325.1380670515
101325.1803448026
101325.2255871345
101325.2747578653
101325.3251757681
101325.3757730785
101325.4260883117
101325.4758839125
101325.5241660706
101325.5700982844
101325.612489564
101325.6506611547
101325.683696992
101325.7112669754
101325.7326571066
101325.747706992
101325.7559080453
101325.7573092354
101325.7516643394
101325.7392829462
101325.7202020256
101325.6949721027
101325.6637853549
101325.6271580961
101325.5852250156
101325.5389453054
101325.4899087189
101325.440230404
101325.390462195
101325.3408876037
101325.2917450025
101325.2436141197
101325.1973025755
101325.1538118125
101325.1142010572
101325.0794374725
101325.0503077245
101325.0273667561
101325.0109954512
101325.001425683
101324.9988009254
101325.003144312
101325.0143814076
101325.032304028
101325.0566756965
101325.0872672863
101325.1238934022
101325.1661321548
101325.2127699698
101325.2615994686
101325.310878706
101325.3601441629
101325.4092315281
101325.457985525
101325.5058041715
101325.5521519314
101325.5959980927
101325.6364794221
101325.6724213073
101325.7030403927
101325.7274600441
101325.7453201447
101325.7561977744
101325.7601317032
101325.7570091133
101325.7470822275
101325.7303617919
101325.707130335
101325.6773447343
101325.6412515933
101325.599171891
101325.5527151706
101325.5041522578
101325.4552975104
101325.4064022669
101325.3576569841
101325.3092340404
101325.2615405735
101325.2151476427
101325.1708391123
101325.12953704
101325.0922667404
101325.0600230165
101325.033700559
101325.0139687211
101325.0012712792
101324.9957879263
101324.9975348983
101325.0063778197
101325.0221822886
101325.0448272126
101325.0743004366
101325.1104896929
101325.1527823922
101325.1993564724
101325.2476861576
101325.2962659018
101325.3448394373
101325.393256068
101325.4414125956
101325.4888387644
101325.5351339321
101325.5794714704
101325.6211187007
101325.6589858881
101325.6922078652
101325.7197381718
101325.7409358916
101325.755139999
101325.7621858502
101325.7618843721
101325.7544398869
101325.7398565857
101325.718343707
101325.68979867
101325.6544233425
101325.6127075522
101325.5665887437
101325.5185537252
101325.4702916822
101325.4219938293
101325.3738219197
101325.3258945388
101325.2785474362
101325.2322106357
101325.18753722
101325.1452839747
101325.106391299
101325.0718148143
101325.0425552148
101325.0194557387
101325.0032286056
101324.9942929988
101324.9928873545
101324.9990033228
101325.0126023213
101325.0335988948
101325.0620048855
101325.0976316803
101325.1396610201
101325.1859211921
101325.2337771322
101325.2818253007
101325.3298745673
101325.3777890335
101325.4254975141
101325.4726079616
101325.5188055655
101325.5633975698
101325.6057656738
101325.6449409744
101325.6800993564
101325.7101825788
101325.7344226867
101325.7519780957
101325.7624397104
101325.7654004527
101325.7608646354
101325.7487231395
101325.7291051294
101325.7019064847
101325.6673763363
101325.626177624
101325.5804770434
101325.532905038
101325.4851149452
101325.4372883386
101325.389569014
101325.3420375715
101325.2949791485
101325.2487330483
101325.2038529286
101325.1609724618
101325.1209286514
101325.084594163
101325.0529601399
101325.0269254967
101325.0073589064
101324.9948901277
101324.9900142017
101324.9929622545
101325.0038995468
101325.0228657737
101325.0499289565
101325.084822885
101325.1264973613
101325.1724465564
101325.219904029
101325.2675232445
101325.3151494487
101325.3626581571
101325.4100010004
101325.4568436617
101325.5029318434
101325.5476725104
101325.5905400676
101325.6306752424
101325.667323728
101325.6994716069
101325.7263151044
101325.7469222619
101325.7607051789
101325.767051621
101325.7657292427
101325.7564322867
101325.7391273748
101325.7136339467
101325.6801989005
101325.6396363677
101325.5943553153
101325.5471767853
101325.4997764555
101325.4523389044
101325.404993296
101325.3577950845
101325.3109890802
101325.2648493469
101325.2198508747
101325.1765299249
101325.1356286848
101325.0979304624
101325.0643755854
101325.0358593327
101325.0133195049
101324.9975243277
101324.9891767423
101324.9887480807
101324.9966538536
101325.0131454089
101325.0384324951
101325.0722599463
101325.1133944914
101325.1589984707
101325.2061101466
101325.2533744504
101325.3006482722
101325.3478201328
101325.3948568656
101325.4414685728
101325.4874458488
101325.5322757969
101325.5755064477
101325.6163759497
101325.6542011905
101325.6880351682
101325.7170806593
101325.7403757664
101325.7572213804
101325.7668532857
101325.7688247493
101325.7626221555
101325.7480001239
101325.7246292706
101325.6926703863
101325.6530026537
101325.6082287226
101325.5614159111
101325.5143483342
101325.4672425363
101325.4202152913
101325.3733049488
101325.3267224885
101325.2806940743
101325.2356311035
101325.1919917446
101325.150433191
101325.1116567858
101325.0765357873
101325.0459330038
101325.0208025339
101325.0019928092
101324.9903506513
101324.986549808
101324.9912405787
101325.0049123274
101325.0279727679
101325.0602757152
101325.1005320566
101325.1456654542
101325.1924473337
101325.2394044019
101325.2863731785
101325.3332554765
101325.3800265547
101325.4264358095
101325.4723061237
101325.5171897942
101325.5606931412
101325.6021402808
101325.6409134085
101325.6761380014
101325.7070447307
101325.7326794772
101325.7522794874
101325.7649809608
101325.7701687846
101325.7671466047
101325.7554563844
101325.7345903527
101325.704551198
101325.6661558638
101325.6220744316
101325.5756418037
101325.5288712779
101325.482058888
101325.4353124234
101325.3886577844
101325.3422771363
101325.296360607
101325.2512659678
101325.2073905384
101325.165316416
101325.1256728248
101325.0892626589
101325.0569038899
101325.0295352432
101325.0080436471
101324.9933657133
101324.9863256699
101324.9877637707
101324.9983878313
101325.0188168883
101325.0490942533
101325.0880399213
101325.132502177
101325.1789374467
101325.2256156853
101325.2723082637
101325.3189299506
101325.3654620273
101325.4116873038
101325.4574529746
101325.5023666014
101325.5460806361
101325.5879927249
101325.6275424955
101325.6639268364
101325.6964135382
101325.7240768508
101325.7461243814
101325.7616356988
101325.7698742379
101325.7700032679
101325.7613821442
101325.7433278905
101325.7156411827
101325.6789530626
101325.6358295795
101325.5898357008
101325.5433434638
101325.4967988215
101325.4503092149
101325.4038894984
101325.3576965463
101325.3118924819
101325.2667894931
101325.222736424
101325.1802507294
101325.1398989702
101325.1024166262
101325.0685728103
101325.0392737131
101325.015415802
101324.9979820941
101324.9878977544
101324.9861399493
101324.9935932859
101325.0110719822
101325.0388555466
101325.0760225583
101325.1195451356
101325.1655793583
101325.2119926403
101325.2584270652
101325.3048051332
101325.3511134018
101325.3971639765
101325.4428247224
101325.4877485989
101325.5316266818
101325.5739188892
101325.614115147
101325.6514778225
101325.6853151684
101325.7147398042
101325.7389540373
101325.7570121223
101325.7680986631
101325.7712794095
101325.7657723712
101325.7507423223
101325.7257778959
101325.6912355146
101325.6494016373
101325.6039599252
101325.5577447987
101325.5114509957
101325.4652030025
101325.4190054769
101325.3729931962
101325.3273047739
101325.2822137852
101325.2380285259
101325.1952110675
101325.1542743359
101325.1158918497
101325.0807836656
101325.0498148934
101325.0238717569
101325.0039518873
101324.991039581
101324.9862005051
101324.9904492274
101325.0047631508
101325.0296666059
101325.0645942852
101325.1068416237
101325.152369291
101325.1985178919
101325.2447055153
101325.2908498132
101325.3369422982
101325.3828212025
101325.4283724358
101325.4732878412
101325.5172914742
101325.5598961047
101325.6006361875
101325.638832447
101325.6738339293
101325.7047958554
101325.730930559
101325.751289677
101325.7650131575
101325.7711062791
101325.7686868119
101325.7567992332
101325.734835833
101325.7028398259
101325.6626772266
101325.6179703342
101325.5720537753
101325.525999868
101325.4799839065
101325.4340014658
101325.3881680091
101325.3426014592
101325.2975417037
101325.2532627174
101325.2101787524
101325.168755992
101325.1296119412
101325.0934196022
101325.0609990637
101325.033213669
101325.0110538742
101324.9955303556
101324.9877582598
101324.9888392728
101324.9998754293
101325.0216149771
101325.0538849525
101325.094465463
101325.1393130572
101325.1851790851
101325.2311274901
101325.2770437618
101325.3229237916
101325.3686295914
101325.4140635533
101325.4589515419
101325.5030464357
101325.5459068316
101325.5871064164
101325.6260179846
101325.6620303741
101325.6943421152
101325.7221856148
101325.7446250382
101325.7607810631
101325.7696278995
101325.7702179502
101325.7615087819
101325.7427277418
101325.7136117356
101325.6755241319
101325.6318135914
101325.586252656
101325.5404333927
101325.4946431252
101325.4488720118
101325.4032186195
101325.3577821455
101325.3127727629
101325.268434458
101325.2251395364
101325.1833129733
101325.1435217117
101325.1063942157
101325.0727044535
101325.0432851135
101325.0191046861
101325.0011771488
101324.9906374165
101324.988638698
101324.996370022
101325.014765489
101325.0440290459
101325.0825216315
101325.1264345686
101325.1719694671
101325.2176829163
101325.2633747391
101325.3090430999
101325.3545719078
101325.399878876
101325.4447200338
101325.4888744318
101325.5319408303
101325.5735282081
101325.6130561326
101325.6499512078
101325.6834549777
101325.7128255862
101325.7371498114
101325.7555469462
101325.7669818831
101325.7704693461
101325.7649101908
101325.7494042607
101325.7234189679
101325.6877970683
101325.6454192977
101325.6003248452
101325.5547435659
101325.509174218
101325.4636125485
101325.4181422864
101325.3728452668
101325.3279051002
101325.2835389611
101325.2400818685
101325.1979218038
101325.1575798107
101325.1196424011
101325.084837829
101325.0539636839
101325.0279570996
101325.0078194785
101324.994683729
101324.9897271357
101324.9941923277
101325.0091559506
101325.0351500517
101325.0711402612
101325.1137823185
101325.1588888338
101325.2043658166
101325.2498357986
101325.2952921407
101325.3406389647
101325.3858081801
101325.4305831903
101325.4747670767
101325.5179946149
101325.5599069063
101325.5999660156
101325.6376344259
101325.6721953599
101325.7029360141
101325.7289720336
101325.7494335239
101325.7632915533
101325.769544095
101325.7670604873
101325.7548492225
101325.7321593408
101325.6993475918
101325.6586932811
101325.6142488258
101325.568925483
101325.5235733599
101325.4782200512
101325.4329365583
101325.3877886278
101325.3429356431
101325.2985707328
101325.2549949248
101325.2125628333
101325.1717532781
101325.1331133733
101325.0973267732
101325.0651535179
101325.037493924
101325.015325888
101324.9997654555
101324.9919929309
101324.9932778008
101325.0047972926
101325.0273483669
101325.0604641316
101325.1014348476
101325.1459464098
101325.1911723752
101325.2364229393
101325.2816663836
101325.3268261133
101325.3718465714
101325.4165369025
101325.4607219081
101325.5040697348
101325.5462506062
101325.5867661905
101325.6251125429
101325.6606134407
101325.692586528
101325.7201802355
101325.7425435788
101325.7586643247
101325.7675392794
101325.7680257238
101325.75907259
101325.7397633676
101325.7100368361
101325.6715163468
101325.6279893636
101325.5829751533
101325.537838336
101325.4926925384
101325.4475995749
101325.4026099323
101325.3578610462
101325.3135240271
101325.2698686612
101325.2272191208
101325.186014907
101325.1467663365
101325.1101134342
101325.0767782874
101325.0476206851
101325.0235886378
101325.0057703378
101324.9953346059
101324.9935562418
101325.001677484
101325.020694891
101325.0506335212
101325.08950153
101325.1331663004
101325.1781008511
101325.2231333925
101325.268163344
101325.3131311047
101325.3579925164
101325.4025804368
101325.446740274
101325.4901706341
101325.5325692604
101325.5734743672
101325.6124142247
101325.6487513563
101325.6818347648
101325.7108476973
101325.7349632606
101325.7531931982
101325.7645439178
101325.7678759269
101325.7621035758
101325.7461934986
101325.7197471289
101325.683751567
101325.6414889119
101325.5968866824
101325.551968158
101325.5070290613
101325.4621298577
101325.4173068678
101325.3726775451
101325.3283927012
101325.2846931832
101325.241874987
101325.2003410195
101325.1605667112
101325.1231501506
101325.0887752756
101325.0582599683
101325.0325177986
101325.0126022878
101324.9996599917
101324.9949553297
101324.9997662158
101325.0152303162
101325.0417720497
101325.0781160507
101325.1205954501
101325.165152829
101325.2099651633
101325.2547815055
101325.2995532192
101325.344246111
101325.3887153977
101325.432825627
101325.4763039588
101325.5188738681
101325.5601080667
101325.5995653537
101325.6366457285
101325.6707294942
101325.7010359852
101325.7267654214
101325.7469584418
101325.7606386655
101325.7666808887
101325.7639842528
101325.7514389184
101325.7283889886
101325.6952564443
101325.6546614287
101325.6106461829
101325.565962704
101325.5212291751
101325.4765263248
101325.4318773305
101325.3873814381
101325.3431707537
101325.2994590157
101325.2565161608
101325.2147106044
101325.1744848924
101325.1363965812
101325.1010921591
101325.0693469125
101325.042037507
101325.0201781071
101325.0048858218
101324.9974029495
101324.9990204739
101325.01096817
101325.033977368
101325.0674238141
101325.1083106236
101325.1523365129
101325.1969165534
101325.2415198378
101325.2860923008
101325.3306083049
101325.3749442711
101325.4189825546
101325.4624771405
101325.5051758613
101325.5466840176
101325.5865896488
101325.6243287941
101325.6593129744
101325.690797829
101325.7180127633
101325.7400302195
101325.7558966039
101325.7645085755
101325.7647647456
101325.7555103665
101325.7359033854
101325.7058976314
101325.6673926741
101325.6242252768
101325.5798215029
101325.5352930409
101325.4907884446
101325.4463194928
101325.4019693174
101325.3578524222
101325.3141572491
101325.2711293966
101325.2291047422
101325.1884946757
101325.1498177211
101325.1136839018
101325.0808258897
101325.0520821915
101325.0284246304
101325.0109361827
101325.0008284455
101324.9993885467
101325.0078994203
101325.0273169002
101325.057566238
101325.0964195628
101325.1396731473
101325.183986584
101325.228377299
101325.2727483784
101325.3170802961
101325.3612700301
101325.4052160481
101325.4486980597
101325.491486624
101325.5332183859
101325.5735090278
101325.6118297462
101325.647622519
101325.6801795374
101325.7087601086
101325.7324707562
101325.7503840495
101325.7614241916
101325.7644994175
101325.7584345764
101325.7422595508
101325.7155626078
101325.6795478962
101325.6375721665
101325.5935409784
101325.5492213074
101325.5049158882
101325.4606318833
101325.416438011
101325.3724323247
101325.3287795357
101325.2857025029
101325.2435062969
101325.2025727128
101325.1633828094
101325.126511187
101325.0926484852
101325.0625943834
101325.0372769317
101325.0177416727
101325.0051637634
101325.0008136217
101325.005998101
101325.0218286061
101325.0486674035
101325.0850554794
101325.1272059625
101325.1711762231
101325.215353275
101325.2595213949
101325.3036634501
101325.3476955663
101325.3915312576
101325.4349743768
101325.4778173245
101325.5197263646
101325.5603439486
101325.5991750232
101325.6356917212
101325.6692221548
101325.6990562783
101325.7243356544
101325.7441616803
101325.7574894933
101325.7632446123
101325.7602491938
101325.7474508963
101325.7241662801
101325.6909857622
101325.6506054477
101325.6071108465
101325.5630147827
101325.5189086583
101325.4748132826
101325.4307847677
101325.3869055736
101325.3433182455
101325.300224339
101325.257899669
101325.2166979588
101325.1770642705
101325.1395390531
101325.1047716148
101325.0735229039
101325.0466764131
101325.0252384589
101325.0103435121
101325.0032363061
101325.0052256406
101325.0175243977
101325.0408243264
101325.0743641994
101325.115006963
101325.1584926406
101325.2024466773
101325.2464113746
101325.2903588687
101325.334223793
101325.377933014
101325.4213136236
101325.464178461
101325.5062223811
101325.5471132491
101325.5863889989
101325.6235509501
101325.6579628798
101325.688945219
101325.7156755453
101325.7372853199
101325.7527632698
101325.7610571315
101325.7609996941
101325.7514904524
101325.7316538522
101325.7015742742
101325.6632156028
101325.6205074884
101325.5766746911
101325.5327677756
101325.4888635285
101325.4450076752
101325.4012681496
101325.3577666081
101325.3146848648
101325.2722706744
101325.2308513421
101325.190837177
101325.1527359557
101325.1171563805
101325.0848213124
101325.0565694412
101325.0333669967
101325.0163048149
101325.0065957046
101325.0055344888
101325.0143942638
101325.034103178
101325.0644876825
101325.1031796266
101325.1459541761
101325.1896557828
101325.2334166987
101325.2771658534
101325.3208551534
101325.3644232693
101325.4077193217
101325.4505752853
101325.4927130414
101325.5338245008
101325.573478929
101325.6112052796
101325.6464010644
101325.6784155498
101325.7064603026
101325.7296947035
101325.7471384546
101325.7577605717
101325.760408861
101325.7539576153
101325.7374108452
101325.7104974362
101325.6745538877
101325.6331299369
101325.5899276761
101325.5465318889
101325.5031318528
101325.4597698768
101325.416501784
101325.3734390835
101325.3307483802
101325.2886620287
101325.247484613
101325.2075987358
101325.1694689182
101325.133642923
101325.1007491359
101325.0714872136
101325.0466047016
101325.0268388081
101325.0127677701
101325.0044639236
101325.0009410009
101325.0000885436
101325.0000025291
101325.0000000124
101324.9999999979
101324.9999999979
101324.9999999978
101324.9999999977
101324.9999999979
101324.9999999977
101324.9999999977
101324.9999999978
101324.9999999978
101324.9999999978
101324.9999999978
101324.9999999978
101324.9999999977
101324.9999999977
101324.9999999978
101324.9999999977
101324.9999999976
101324.9999999978
101324.9999999977
101324.9999999977
101324.9999999977
101324.9999999977
)
;

boundaryField
{
    inlet
    {
        type            calculated;
        value           uniform 101325.0000000883;
    }
    outlet
    {
        type            calculated;
        value           uniform 101324.9999999977;
    }
    frontAndBack
    {
        type            empty;
    }
}


// ************************************************************************* //
