/*--------------------------------*- C++ -*----------------------------------*\
| =========                 |                                                 |
| \\      /  F ield         | OpenFOAM: The Open Source CFD Toolbox           |
|  \\    /   O peration     | Version:  v2012                                 |
|   \\  /    A nd           | Website:  www.openfoam.com                      |
|    \\/     M anipulation  |                                                 |
\*---------------------------------------------------------------------------*/
FoamFile
{
    version     2.0;
    format      ascii;
    class       volScalarField;
    location    "0.007";
    object      rho;
}
// * * * * * * * * * * * * * * * * * * * * * * * * * * * * * * * * * * * * * //

dimensions      [1 -3 0 0 0 0 0];


internalField   nonuniform List<scalar> 
1000
(
1.176303020642822
1.176326671212787
1.176272828415178
1.176229352257884
1.176178436633388
1.176131864584703
1.176092398364986
1.176059253352516
1.176030642454456
1.176010528424727
1.176004292999223
1.176003862358432
1.176006070257497
1.176013547903479
1.176029073016494
1.176053296880106
1.176085338776327
1.176123664670861
1.176166973357279
1.176214381757518
1.17626519538562
1.176318683031575
1.176373987270644
1.176430106455851
1.176485912705155
1.17654024310085
1.176592091028686
1.17664088224859
1.176686697182659
1.17672992626487
1.176769361423085
1.176798897322348
1.176811443213049
1.176812940316223
1.176812447721494
1.176810680647246
1.176805293976243
1.176794317640656
1.176775778837047
1.176748600869457
1.176712930434467
1.176670048602042
1.176621791288629
1.176569889104613
1.17651563721717
1.176459964925224
1.176403672586957
1.176347605472977
1.176292665369665
1.176239601441977
1.176188641280247
1.176139424734935
1.176092137503527
1.1760505264807
1.176023570137476
1.176015042778855
1.17601450108482
1.176014731047629
1.17601660644583
1.176021243015953
1.176030573612654
1.176046337961069
1.176069938423874
1.176102008785211
1.176142204577356
1.176189252461908
1.176241294464241
1.176296386045111
1.176352891205658
1.176409601294497
1.176465657835743
1.176520519381032
1.17657406842734
1.176626642187413
1.176678580963073
1.176728769178389
1.176771828520451
1.176797986763758
1.176805532927352
1.176806018550357
1.17680555643706
1.176804122195177
1.176800175530213
1.176792338642912
1.176778970419857
1.176758594468581
1.176730164710208
1.176693367390464
1.176648766589473
1.176597732557263
1.176542177907802
1.176484178319299
1.17642556874352
1.176367623843919
1.176310914570409
1.176255350710118
1.176200401461741
1.176145755438618
1.176093199970109
1.176049804360288
1.17602594296024
1.176020271968835
1.17602010850235
1.176020358574481
1.176021882550294
1.176025534969964
1.176032737636349
1.17604492337784
1.176063489186746
1.176089540412802
1.176123657043159
1.176165688899427
1.17621467763708
1.176268983848806
1.176326600926426
1.176385550862387
1.176444267629361
1.176501909110851
1.176558491061083
1.176614643262293
1.176670707930942
1.176724735178871
1.176769505564932
1.176794523640591
1.176800835154931
1.176801172423013
1.176800808619489
1.176799664502431
1.176796573855107
1.176790444026972
1.17677992629969
1.176763664307266
1.176740445068882
1.176709428535877
1.17667035259768
1.176623669023035
1.176570571112559
1.176512855102952
1.176452570877357
1.176391530684158
1.176330873654793
1.17627089420659
1.176211287187706
1.176152103008106
1.176096074123713
1.176051722478466
1.176029209010847
1.176024453633009
1.176024351240097
1.176024568611324
1.176025812594119
1.176028780267122
1.176034617601126
1.176044529201479
1.176059772154285
1.176081495371877
1.176110571824517
1.176147403403037
1.176191759236558
1.176242725757688
1.176298808748425
1.176358181529855
1.176419062225822
1.176480155639212
1.176540962327886
1.17660164024786
1.176662057325909
1.176719580142045
1.176766075745775
1.176791029224982
1.176797018608818
1.17679732840595
1.176797042416129
1.176796136849679
1.176793663589337
1.176788723488376
1.176780175747066
1.176766813671952
1.176747453457923
1.176721096855177
1.176687099897672
1.176645328028422
1.176596273189599
1.176541069044093
1.176481319018668
1.176418730783968
1.176354686708014
1.176289963643127
1.176224865641141
1.176160224759214
1.176099964139618
1.176053991027126
1.176032098202986
1.176027858673653
1.176027779680892
1.17602796259119
1.176028993849672
1.17603145205146
1.176036293984212
1.176044550627754
1.176057340968111
1.176075763169077
1.176100775805711
1.176133041277979
1.176172769633546
1.176219620573234
1.176272700844131
1.176330674360131
1.1763920129737
1.176455375163213
1.176519943563687
1.17658537292252
1.176650880179292
1.176712922334711
1.176762210294306
1.176787898356724
1.176793859258993
1.176794166312611
1.176793937965857
1.176793212215646
1.176791196926849
1.176787138894023
1.176780060444747
1.17676889394639
1.176752533880473
1.176729953079868
1.176700331476732
1.176663189928338
1.176618518483469
1.176566850420119
1.176509201200701
1.176446841010946
1.176380976877633
1.176312513129589
1.176242177793862
1.176171588368004
1.176106026060423
1.176057112652537
1.176034799284061
1.176030713096962
1.176030633611332
1.17603078512094
1.176031648628221
1.176033714264432
1.17603779632431
1.17604478614148
1.176055676931683
1.176071488315241
1.176093182279489
1.176121541895613
1.176157039018227
1.17619973303199
1.17624922730906
1.176304701252546
1.176365057883372
1.176429200714836
1.176496308871223
1.176565780637606
1.176636327904175
1.176703564013714
1.176756947361058
1.176784672189302
1.176791129409377
1.176791481327981
1.176791301133977
1.176790720918722
1.176789063846331
1.176785689454636
1.176779750830154
1.176770303942893
1.176756335744574
1.176736846718195
1.176710945371979
1.176677954208067
1.176637524268462
1.176589722198085
1.176535023325153
1.176474180231905
1.176408018181196
1.176337287662243
1.1762628486801
1.176186814271866
1.176115499860032
1.176062127622901
1.176037751904088
1.176033228647297
1.176033107670318
1.176033224548095
1.176033940251685
1.176035678216201
1.176039146303187
1.176045124037542
1.176054495313586
1.176068195019543
1.176087150370021
1.176112188846477
1.176143932771802
1.176182710863759
1.176228503235563
1.176280933822712
1.176339350383132
1.176403013302395
1.176471288263821
1.176543550999857
1.176618292229969
1.176690685085055
1.176749313602625
1.176780810814783
1.176788616627795
1.176789112024615
1.176788974814771
1.176788524034119
1.176787167265072
1.176784352295077
1.176779335049319
1.176771276626065
1.176759254960571
1.176742322982873
1.176719574945837
1.176690225934606
1.176653705787583
1.176609739738596
1.176558364245645
1.176499857360169
1.176434623467717
1.176363130087615
1.176286140588904
1.176205872451421
1.176129010121699
1.17606978905438
1.176041354025096
1.176035575515651
1.176035343834454
1.176035423743174
1.176036000981594
1.1760374465893
1.176040390067585
1.176045522187887
1.176053636135652
1.176065587361785
1.176082253130795
1.176104463512709
1.176132921052438
1.176168130013678
1.176210342685565
1.176259533142286
1.176315435853568
1.17637766924216
1.176445857142534
1.17651950359891
1.176597155706575
1.176674070775991
1.176738663931205
1.176775778520314
1.17678611711215
1.176786945368762
1.176786846973075
1.17678651451416
1.176785420386694
1.176783083837162
1.176778840380976
1.176771938022546
1.176761536418368
1.176746748062811
1.176726682569942
1.1767005041653
1.176667505302277
1.176627173876265
1.176579215971162
1.176523524960146
1.176460128914769
1.176389184386216
1.176311221009712
1.176228227846517
1.176146568125506
1.176080613143777
1.176046069446783
1.176037912206345
1.176037431902776
1.176037476618025
1.17603792549722
1.176039103174295
1.176041582123001
1.176045981878321
1.176053022292965
1.176063489662823
1.176078208792317
1.176097991475654
1.176123577451926
1.176155580668793
1.176194441326257
1.176240392410156
1.176293474895828
1.176353616529296
1.176420700796796
1.176494432809371
1.176573608420256
1.176654004048888
1.176724647639215
1.176768974866696
1.176783381077781
1.17678490414169
1.176784845600407
1.176784619635315
1.176783756783659
1.176781839134117
1.176778263327832
1.17677234867863
1.176763325077845
1.176750362801024
1.176732600482576
1.17670918597444
1.176679332665606
1.176642371881532
1.17659777510242
1.176545146729847
1.176484211488753
1.176414838616294
1.176337267622797
1.176253059503196
1.176167755785184
1.176094932301285
1.176052492247851
1.176040443451919
1.176039428447045
1.176039439527223
1.176039774589568
1.176040707967212
1.17604276965862
1.176046520942337
1.176052622633328
1.176061802752355
1.17607483695167
1.176092509902871
1.176115573224237
1.176144705615753
1.176180471244304
1.176223285506041
1.176273418661659
1.176331044936153
1.176396275592222
1.176469033301305
1.176548454186807
1.176631084197226
1.17670720148383
1.176759759997816
1.17678004793363
1.176782915144798
1.17678293085358
1.176782793665823
1.176782131575139
1.176780582838243
1.176777591566031
1.176772536265928
1.176764706276542
1.176753324469346
1.176737563709237
1.176716576064531
1.176689535193043
1.176655674907046
1.176614308061064
1.176564833473527
1.176506746237444
1.176439673126851
1.176363563971005
1.176279481601667
1.176191896429882
1.176112834455041
1.176061301097613
1.17604348857965
1.176041377768592
1.176041346134909
1.176041583875034
1.176042299197737
1.176043986703568
1.176047157968815
1.176052426195164
1.176060470429998
1.176072022315272
1.176087836837066
1.176108663149986
1.176135214817734
1.176168133814314
1.176207959226631
1.176255126399058
1.176309996119025
1.176372864149122
1.176443854296793
1.176522456015212
1.176606056956816
1.176686557228816
1.176747571916477
1.176775589485075
1.176780887816478
1.176781079847918
1.176781008309335
1.176780517560767
1.176779291914557
1.176776814770119
1.176772515331076
1.176765733241863
1.176755738234402
1.176741738582917
1.176722902590139
1.176698389860395
1.17666737795799
1.176629077698074
1.176582748283905
1.176527718491254
1.176463421871545
1.1763895510634
1.176306689654931
1.176218197965113
1.176134112585973
1.176073130479826
1.176047534841039
1.176043342431964
1.176043217602798
1.176043372962855
1.176043898334746
1.176045254063797
1.176047905847536
1.176052428103913
1.176059458186411
1.176069688769658
1.176083845546623
1.176102667348526
1.176126883054702
1.176157180405013
1.176194179669306
1.176238431790364
1.176290433468582
1.176350622054461
1.176419291579205
1.176496251721295
1.176579680464738
1.176663196423917
1.176732067798106
1.176769337047059
1.176778647375761
1.176779276098195
1.176779250028875
1.176778899112337
1.176777954151326
1.176775928394136
1.176772297112899
1.176766443214359
1.176757678077595
1.176745244889119
1.176728335019021
1.176706110261429
1.176677719919197
1.176642313430843
1.17659905981202
1.176547171643907
1.17648593472556
1.176414830070781
1.176334026837623
1.17624587010772
1.176158291784708
1.176088404450547
1.176053239500305
1.176045475570139
1.176045052602784
1.176045152120222
1.176045516622326
1.176046581738438
1.176048770295397
1.176052623229105
1.17605874141104
1.176067782920976
1.176080445681285
1.176097453975516
1.176119539336586
1.176147413705463
1.17618174890952
1.176223174838608
1.176272283906771
1.176329617936477
1.176395607389786
1.176470329222444
1.176552636081018
1.176637754398758
1.17671322608918
1.176760572739329
1.176775869336754
1.176777494786611
1.176777512316114
1.176777271155102
1.17677656530671
1.176774933528077
1.176771893400809
1.176766865674074
1.176759199358103
1.176748171459338
1.176733000083033
1.176712859183559
1.176686888522489
1.176654204851586
1.176613922770612
1.176565176496604
1.17650714277225
1.176439137972126
1.176360996389805
1.176274205274938
1.17618471982861
1.176107222947083
1.17606136570818
1.176048046992178
1.176046865527042
1.176046922285732
1.176047156652175
1.176047972393556
1.176049750539267
1.176053003723171
1.176058299248731
1.176066264079147
1.176077570148937
1.176092924857278
1.176113054221806
1.176138680266469
1.176170506175718
1.176209214102091
1.176255461484742
1.176309865025713
1.176372960791289
1.176445036645992
1.176525484548383
1.176610913155579
1.176691347272474
1.176748684497414
1.176772035619307
1.176775686429083
1.176775787083286
1.176775633416033
1.176775127431091
1.176773835638573
1.176771317449915
1.176767026498093
1.176760346409902
1.176750586905574
1.176736994578956
1.176718761504511
1.176695030437459
1.176664905487195
1.176627472070179
1.176581813826755
1.176527030019566
1.176462314859451
1.176387244296231
1.176302618116603
1.176212681222276
1.176129340748219
1.176072612470408
1.176051517022677
1.176048699326572
1.176048682950327
1.176048815004291
1.176049422718286
1.176050841273915
1.176053559064702
1.176058112096502
1.176065098806348
1.176075166681925
1.176089004864996
1.176107328612988
1.176130860988108
1.176160322819196
1.176196429165124
1.17623987974142
1.176291343823353
1.176351437276919
1.176420607323891
1.176498657019386
1.176583313967047
1.176666971292117
1.176733333855692
1.176766458906431
1.176773694209662
1.176774083224869
1.176773986976226
1.176773644940565
1.176772643523135
1.176770583916479
1.176766949621635
1.176761156690654
1.176752546469143
1.176740394645743
1.176723914893927
1.176702261456213
1.176674539686263
1.176639823240895
1.176597165401097
1.176545613246387
1.176484274458566
1.176412531948742
1.176330654413285
1.176241492354481
1.176154233991124
1.176087436572278
1.176056559414455
1.17605065814164
1.176050425981918
1.17605049004653
1.176050926429023
1.176052033527818
1.176054276417952
1.176058160356806
1.176064257593834
1.176073192251345
1.176085634228159
1.176102284716898
1.176123862141314
1.176151095528471
1.176184718741537
1.176225457378402
1.176274017126743
1.176331072852004
1.176397187649067
1.176472466986963
1.176555505479469
1.176640761190087
1.176714540531706
1.17675837131805
1.176771228025401
1.176772391449078
1.176772337447847
1.176772124656423
1.17677136713402
1.176769708271147
1.176766657707015
1.176761663086838
1.176754096347263
1.176743262139629
1.176728397768437
1.176708674813012
1.176683209347338
1.176651075089096
1.176611309764708
1.17656292835484
1.176504980409677
1.176436707887009
1.176357980062518
1.176270559263678
1.176181220703909
1.176105938679088
1.176063965520818
1.176052973991058
1.176052155827358
1.176052174513182
1.176052476747855
1.176053316763624
1.176055141408316
1.176058424486062
1.176063713461697
1.176071609831387
1.17608276351215
1.176097859613387
1.176117608331367
1.176142740132099
1.176173997407105
1.176212120200596
1.176257839097062
1.176311871339039
1.17637486112407
1.176447130594079
1.17652792534597
1.176613391786342
1.176692656803088
1.176747117904746
1.176767799914927
1.1767706648653
1.176770690632788
1.176770575851892
1.176770017964708
1.176768706036441
1.176766172390044
1.176761895406615
1.176755276635336
1.176745649182289
1.176732275186734
1.176714347646159
1.176690999667502
1.176661312974604
1.176624320812201
1.176579021874662
1.176524429300381
1.176459684016596
1.176384361231942
1.176299402046207
1.176209582027239
1.176127843727111
1.176074478825336
1.17605608131872
1.176053896539149
1.176053864049827
1.17605406310206
1.176054679211563
1.176056139098996
1.17605888501176
1.176063441150051
1.176070386460125
1.176080350328827
1.176094000661905
1.176112037097808
1.176135186500812
1.176164192326733
1.176199801304677
1.176242760660659
1.176293816702599
1.176353667966959
1.176422788965584
1.176500902995139
1.176585472579459
1.176668270950947
1.176732331567828
1.176762713939745
1.176768789287567
1.176769055329549
1.176769003584595
1.176768607317563
1.176767592966324
1.1767655142856
1.176761880896883
1.176756122661509
1.176747600534842
1.17673560230592
1.176719345176289
1.176697983264978
1.176670611628362
1.176636267542634
1.176593945718106
1.176542638939896
1.176481417078786
1.176409643140669
1.176327654652871
1.17623864866346
1.176152589145621
1.176088606142541
1.17606063143537
1.176055728105589
1.176055556001956
1.176055677414217
1.176056108406726
1.176057254416217
1.176059522994358
1.176063416694504
1.176069491941072
1.176078357169459
1.176090662490974
1.176107095274947
1.176128374841055
1.176155240421543
1.176188440310235
1.176228732175339
1.176276880683584
1.176333619036243
1.176399527733512
1.17647467425963
1.176557510514921
1.17664207565557
1.176714016817964
1.176755191557491
1.176766507531321
1.176767425946396
1.176767417415248
1.176767145325659
1.176766383707274
1.176764702835503
1.176761644645238
1.176756666336557
1.176749155989223
1.176738427547421
1.176723724211041
1.176704223486559
1.176679037509297
1.176647214316914
1.176607753936006
1.176559640332821
1.176501894896356
1.176433731048968
1.176355051913534
1.176267851425518
1.176179458941939
1.176106475016819
1.176067421363815
1.176057871315931
1.176057237797937
1.17605731096657
1.176057593820997
1.176058472374482
1.176060319881803
1.176063617523843
1.176068898585453
1.176076750432798
1.17608780509674
1.176102736301207
1.176122252740385
1.176147085823548
1.176177982034802
1.176215704504326
1.176261027652328
1.176314705430534
1.176377391679335
1.176449397998109
1.176529898827009
1.176614755536953
1.176692533388742
1.176744547965917
1.176763353948393
1.176765776416047
1.176765822398231
1.176765645457232
1.176765093965751
1.176763757395593
1.176761210902439
1.176756937414012
1.176750351777599
1.176740794424371
1.176727535512574
1.176709777175998
1.176686651343741
1.176657222115726
1.17662050163061
1.176575473265248
1.176521127211782
1.176456574604091
1.176381411266197
1.176296737112643
1.176207707131111
1.17612782409327
1.176077236182971
1.17606072043745
1.176058931715501
1.176058958300832
1.176059125460585
1.1760597824013
1.176061263048703
1.17606403006307
1.176068593233243
1.176075519810619
1.176085424897368
1.176098968685092
1.176116849023392
1.176139790815809
1.176168540968822
1.176203868835409
1.176246558377642
1.176297383308143
1.176357053881197
1.176426044141336
1.176503997518991
1.176588029325113
1.176669136371315
1.176729780859489
1.17675670130462
1.176761539532623
1.176761715884721
1.176761600406128
1.176761181664518
1.176760064351166
1.176757841840208
1.176754012233052
1.176748018671689
1.176739251450706
1.176727061240375
1.176710776167449
1.176689727236941
1.17666328851978
1.176630951828719
1.176592497265928
1.176548436706898
1.17650113006352
1.176456837768767
1.176425955197608
1.176413732744712
1.176411800497669
1.176411716848682
1.176411716172832
1.176411716172131
1.176411716172127
1.176411716172128
1.176411716172129
1.176411716172127
1.176411716172124
1.176411716172123
1.176411716172122
1.176411716172125
1.176411716172123
1.176411716172121
1.176411716172124
1.176411716172125
1.176411716172126
1.176411716172125
1.176411716172129
1.17641171617213
1.176411716172131
1.176411716172133
1.17641171617213
1.176411716172133
)
;

boundaryField
{
    inlet
    {
        type            calculated;
        value           uniform 1.176411716172193;
    }
    outlet
    {
        type            calculated;
        value           uniform 1.176411716172133;
    }
    frontAndBack
    {
        type            empty;
    }
}


// ************************************************************************* //
