/*--------------------------------*- C++ -*----------------------------------*\
| =========                 |                                                 |
| \\      /  F ield         | OpenFOAM: The Open Source CFD Toolbox           |
|  \\    /   O peration     | Version:  v2012                                 |
|   \\  /    A nd           | Website:  www.openfoam.com                      |
|    \\/     M anipulation  |                                                 |
\*---------------------------------------------------------------------------*/
FoamFile
{
    version     2.0;
    format      ascii;
    class       volScalarField;
    location    "0.007";
    object      T;
}
// * * * * * * * * * * * * * * * * * * * * * * * * * * * * * * * * * * * * * //

dimensions      [0 0 0 1 0 0 0];


internalField   nonuniform List<scalar> 
1000
(
299.9880138201556
299.98980719663
299.9834776788248
299.9788049415158
299.9743197718435
299.9704269083694
299.9668810068109
299.9636854802467
299.9608705891785
299.9589459579123
299.9584254608808
299.9585201058526
299.958882879317
299.9596735237611
299.9612199254748
299.9636388692314
299.96685304767
299.9707078038896
299.9750726694804
299.9798615204274
299.9850080286272
299.9904408383422
299.996073311146
300.0018017173484
300.0075078113082
300.013069064682
300.0183790388984
300.0233760606113
300.0280660010758
300.0324872770616
300.0365164175024
300.0395309657283
300.0408076548626
300.0409561564113
300.0409001462447
300.0407124165131
300.0401581207444
300.0390358233998
300.0371432420303
300.0343703456498
300.0307318225935
300.0263578982627
300.0214354188629
300.0161406026302
300.0106053802992
300.0049244934169
299.9991796535926
299.9934572496438
299.9878494867858
299.9824330014422
299.9772311734644
299.9722073412785
299.9673804951506
299.9631331129535
299.9603816781529
299.9595114048791
299.95945626585
299.959479959539
299.9596715612275
299.9601448686724
299.9610972702233
299.9627063743483
299.9651153172284
299.9683887745117
299.9724915566663
299.9772936524196
299.9826053775336
299.9882282236669
299.9939951896797
299.9997829061622
300.0055037557804
300.011102486265
300.016567116283
300.0219320685442
300.027232077512
300.0323533154874
300.0367470062518
300.039416087118
300.0401860624317
300.0402356176408
300.0401884725559
300.0400421381214
300.0396394454219
300.038839808197
300.0374757685308
300.0353966673441
300.0324957417373
300.028740940785
300.024189777735
300.0189820273698
300.0133128189487
300.0073939403647
300.001412635411
299.9954989879816
299.9897112756529
299.9840403017507
299.9784318987015
299.972854287246
299.9674899028743
299.9630603554411
299.9606246870998
299.9600458136812
299.9600291301344
299.9600546606579
299.960210226018
299.9605830532471
299.9613182733949
299.962562138321
299.9644572350468
299.9671163712274
299.9705987165245
299.9748888998172
299.9798890549706
299.9854318056913
299.9913123119936
299.9973286741989
300.0033210605019
300.009203534156
300.0149777124923
300.0207078706873
300.0264289315086
300.031941926273
300.0365102162173
300.0390629619733
300.0397069600352
300.0397413756901
300.0397042576092
300.0395875201099
300.03927216626
300.0386467059629
300.0375735177568
300.035914194258
300.0335449501198
300.0303800416386
300.026392685056
300.0216289321613
300.0162105010709
300.0103206455715
300.0041685221393
299.9979390589789
299.991748508696
299.9856269239892
299.9795431648997
299.9735023780383
299.9677834700224
299.9632563385217
299.9609582624329
299.9604728524066
299.960462402883
299.9604845951292
299.9606115794539
299.9609145099991
299.9615103622849
299.9625220936979
299.9640780138661
299.966295383203
299.9692632853804
299.9730227081476
299.9775500428334
299.9827519946293
299.9884760086013
299.9945356116843
300.00074892331
300.0069837514869
300.0131891265707
300.0193811694378
300.0255464021601
300.0314161090555
300.0361604468637
300.0387066060407
300.0393177380006
300.0393493519902
300.0393201750381
300.0392277797438
300.0389754224747
300.0384713580673
300.0375991814519
300.0362357599374
300.0342602901201
300.0315708930265
300.0281018289508
300.0238393269905
300.0188335375379
300.0132000942135
300.0071025772751
300.0007152214329
299.9941790817801
299.9875734308527
299.9809292942426
299.9743315925189
299.9681807670407
299.9634881327867
299.9612534130728
299.9608206614029
299.9608126020432
299.9608312790222
299.9609365513843
299.9611874787097
299.9616817262569
299.9625245293821
299.9638301032058
299.9657105319913
299.9682636434303
299.9715570234237
299.9756120749157
299.980394018954
299.9858116354852
299.9917285119814
299.9979886463349
300.0044550994277
300.0110444390215
300.0177214203301
300.0244061259927
300.0307370218073
300.0357663003085
300.0383874184999
300.0389956470104
300.0390269827371
300.0390036892133
300.0389296436369
300.0387240173158
300.0383099569393
300.0375877030993
300.0364483139638
300.0347789775062
300.0324748693263
300.0294522874136
300.0256623065118
300.0211038678596
300.0158313389957
300.0099482923273
300.0035843016549
299.9968625072278
299.9898751695503
299.9826965656877
299.9754917668512
299.9687998246389
299.9638070736949
299.9615294297353
299.9611123321959
299.9611042235357
299.9611196967896
299.9612078470769
299.9614187038345
299.9618353877664
299.9625488803287
299.9636605599607
299.9652744963373
299.9674888698389
299.9703835895551
299.9740067879968
299.9783644870846
299.9834161575475
299.9890779957654
299.9952379943579
300.0017842056395
300.0086328201752
300.0157224024223
300.0229214799738
300.0297824176916
300.0352296028354
300.0380585500617
300.0387174219604
300.0387533360103
300.038734956194
300.0386757610775
300.0385066860885
300.0381623819738
300.037556432021
300.0365925074576
300.0351672338549
300.0331786119357
300.0305356570994
300.0271692104949
300.0230436268353
300.0181656603654
300.0125837632992
300.0063746799229
299.9996225750718
299.9924039883913
299.9848066435624
299.9770461659641
299.9697671508567
299.9643192898873
299.9618311333986
299.9613694220051
299.9613570779952
299.9613690158258
299.9614420789816
299.9616194882098
299.9619735001971
299.962583683927
299.9635402597875
299.964938650349
299.9668734898036
299.9694292249706
299.9726693526438
299.9766273913379
299.9813012689858
299.9866525535577
299.9926146233923
299.9991119418351
300.006079723073
300.0134542113821
300.0210813443529
300.0284685463596
300.0344509731744
300.0376648484921
300.0384613250338
300.0385118783931
300.038497883698
300.0384518949285
300.0383134610742
300.0380262373747
300.0375143007954
300.036692050256
300.0354653965378
300.0337376946554
300.0314165095793
300.0284217271591
300.0246951363239
300.0202086578645
300.0149659614965
300.0089953636335
300.002338068832
299.9950417228175
299.9871841659897
299.978991658727
299.9711464355372
299.9651015981706
299.9621990913998
299.9616092484392
299.9615856034233
299.9615937662239
299.9616526945275
299.9618002602983
299.9621007214874
299.9626245879206
299.9634528215624
299.9646727377959
299.9663738745623
299.9686409464888
299.971545643537
299.9751394076386
299.9794479521776
299.9844685851987
299.990174153167
299.9965256549379
300.0034846399353
300.0110004318197
300.0189247019152
300.0267734404913
300.033364541862
300.0371516095054
300.0382065196866
300.0382910354884
300.0382809999006
300.0382470829061
300.0381354468912
300.0378970381425
300.0374640549951
300.0367597645647
300.0356984173092
300.0341894480285
300.0321419922939
300.0294707507135
300.0261034987603
300.0219879441206
300.0170940477168
300.0114108715886
300.0049412136718
299.9977009750086
299.9897441264083
299.9812735930452
299.97293879262
299.9662066578307
299.9626806195691
299.9618479647871
299.9617989404246
299.9618035092161
299.9618493338772
299.961969549341
299.9622225921738
299.9626717010254
299.9633903529493
299.9644588053444
299.9659612431048
299.9679805181576
299.9705921208072
299.9738586932118
299.9778251335246
299.9825151800786
299.9879329643599
299.9940710534501
300.0009174904403
300.0084421084297
300.0165219487761
300.0247259500051
300.0319345039787
300.0364575527095
300.0379275065805
300.038082916388
300.0380769460623
300.0380538938706
300.037965855244
300.0377701882301
300.0374053283754
300.0368018194426
300.0358810792489
300.0345584399226
300.0327460006452
300.0303567948171
300.0273105347574
300.0235389566845
300.0189880865782
300.0136175013408
300.0073990430411
300.0003192878658
299.9924025883779
299.9838081638378
299.9751015337608
299.9676683905377
299.9633363563636
299.9621064679152
299.9620028624967
299.9620039965453
299.96203820202
299.9621334794882
299.9623439294541
299.9627268442586
299.9633496751122
299.9642867317528
299.9656171832615
299.9674211152329
299.9697752336131
299.9727487939052
299.9763993520584
299.9807692689988
299.9858860815751
299.9917675142831
299.9984248551154
300.0058501349405
300.0139551092406
300.0223872231867
300.0301544033975
300.0355173930323
300.0375874985206
300.037880058445
300.0378816632914
300.0378676683158
300.0378001135844
300.0376420880175
300.0373368708556
300.0368210461255
300.036022098066
300.0348607266801
300.0332525258518
300.0311109620613
300.0283516973303
300.0248965222185
300.0206752811055
300.0156265766717
300.0096988205786
300.0028538458032
299.9950864378059
299.9865049625404
299.9775655905282
299.9694957726197
299.9642355857152
299.962417363932
299.9622019027067
299.9621986756753
299.9622229455338
299.962295964251
299.9624682181986
299.9627919265768
299.9633296808324
299.9641507923448
299.9653299389299
299.9669441777932
299.9690699659333
299.9717801208218
299.9751401442713
299.979205026512
299.9840191579165
299.9896193071741
299.9960355935555
300.0032805737178
300.0113020553177
300.0198333616742
300.0280478921499
300.0342737946355
300.0371326136831
300.0376732345761
300.0376928299872
300.037685532371
300.037635460073
300.0375104007693
300.0372576425804
300.0368189426843
300.0361269188427
300.0351070534411
300.0336785549438
300.0317565486643
300.0292552658522
300.0260907616534
300.02218247298
300.0174547606629
300.011839068844
300.0052775154225
299.9977386391502
299.9892818899656
299.9802501196868
299.9716676761982
299.9654430822889
299.962830403597
299.9624024612082
299.9623897204507
299.962405580316
299.9624592091606
299.9625975963013
299.9628682778623
299.9633298867453
299.9640474788952
299.9650917553948
299.9665367847726
299.9684579723626
299.9709297017894
299.9740221498305
299.977798597153
299.9823152372557
299.987622714713
299.9937656025584
300.0007738315883
300.0086278877687
300.017141736828
300.025664111565
300.032691783393
300.0364946356092
300.037444624552
300.0375087776742
300.0375061187975
300.0374703138455
300.0373738941348
300.0371671933349
300.0367966695141
300.0361993551593
300.0353049828942
300.0340363247329
300.0323108616143
300.0300430509508
300.027146067731
300.0235330904151
300.0191192819491
300.013824234721
300.0075749937158
300.0003185044033
299.9920719207329
299.9830744655867
299.9741356283182
299.9670021371284
299.9634126900471
299.96262018205
299.9625770081876
299.9625871672757
299.9626243748334
299.9627330972037
299.9629564943876
299.9633497818278
299.9639742919541
299.9648971952677
299.9661897267697
299.967925808586
299.9701800976222
299.9730252440656
299.9765297949004
299.9807580059073
299.9857702951965
299.9916219027217
299.9983566867232
300.0059824113967
300.0143818869839
300.0230678946459
300.0307691622133
300.0356003239735
300.0371611307692
300.0373269857211
300.0373287750483
300.0373041686293
300.0372321468057
300.0370656458368
300.0367554410543
300.036242426562
300.0354601752952
300.0343349111223
300.0327868445242
300.0307316760238
300.0280816101964
300.0247464942269
300.0206359433187
300.0156615588936
300.0097392629766
300.0027992048915
299.9948243667632
299.9859664151975
299.9768330571373
299.9689229516517
299.9642421309418
299.9628826165256
299.9627620182632
299.9627678123695
299.9627917359466
299.9628750030806
299.9630565072171
299.9633885750009
299.9639291127144
299.9647421151883
299.9658961656586
299.9674634642408
299.9695181069512
299.9721337759533
299.9753822223697
299.9793330405055
299.9840532899596
299.9896058580051
299.9960453855312
300.0034011647338
300.01161104263
300.0203288374817
300.028536590584
300.0343872302702
300.0367698993632
300.0371424139252
300.0371526846977
300.0371370054352
300.037085376774
300.0369535665989
300.0366966184812
300.036258782121
300.0355771630527
300.0345813239434
300.0331943834613
300.0313338930139
300.0289123654077
300.0258383614974
300.0220185232666
300.0173592967373
300.0117687037413
300.0051644333938
299.9975031081026
299.9888662321728
299.9796869332473
299.9711804915635
299.965390081059
299.9632367601814
299.9629491425488
299.9629474711776
299.9629609509445
299.9630229834886
299.9631677822842
299.9634451997225
299.963909947624
299.9646231094602
299.9656507738354
299.9670632784685
299.968933622824
299.9713355974858
299.9743427577255
299.9780280604624
299.9824628848687
299.9877154891503
299.9938486639888
300.0009079700361
300.0088732100606
300.0175123810374
300.0260491610917
300.0328208174952
300.036200805226
300.0369390678222
300.0369787617137
300.0369689410311
300.0369340410388
300.0368318596305
300.0366217035871
300.036250870421
300.0356597745845
300.0347812063364
300.033541254165
300.0318596750442
300.029650156325
300.0268213891295
300.0232788198043
300.0189258018186
300.0136650383669
300.00740539552
300.0000838023795
299.9917275646455
299.982627483371
299.9737212795567
299.9669031649233
299.9637513918864
299.9631490167133
299.9631253190815
299.9631318586477
299.9631764024203
299.9632894091767
299.9635183511139
299.9639148015887
299.96453717134
299.965449164593
299.9667191558808
299.9684187105516
299.9706211478777
299.9734008627816
299.9768327351295
299.9809907902035
299.9859470077178
299.9917702055874
299.9985177760034
300.0062003885688
300.0146745157246
300.0233745281006
300.0309030923194
300.0353754995782
300.0366873510819
300.0368060626409
300.0368005526186
300.0367788401643
300.0367015449166
300.0365322794002
300.0362210082958
300.0357113699932
300.0349392766805
300.0338337730013
300.0323170285845
300.0303045018788
300.0277059808325
300.024426921948
300.0203690965407
300.0154319385253
300.0095183890572
300.0025510004043
299.9945163206217
299.985594086602
299.9764757009515
299.9687916514806
299.9645072919262
299.9633853280163
299.9633018138159
299.9633037212467
299.9633345718097
299.9634203160496
299.9636065656268
299.963941683444
299.9644815506397
299.9652875624044
299.9664260545036
299.9679669519266
299.9699827360225
299.9725479511358
299.9757383509184
299.9796294392642
299.984295741917
299.9898104075804
299.9962391118602
300.0036146425513
300.0118599067592
300.0205815497754
300.0286699930441
300.0342271526029
300.0363374771167
300.0366298061247
300.0366324353757
300.0366207235277
300.0365637983662
300.0364299329205
300.0361714065201
300.0357349939571
300.0350596294056
300.0340772616829
300.0327125956783
300.0308832771059
300.0285008345283
300.0254715449557
300.0216967270659
300.0170741587812
300.011503072719
300.004895718965
299.9972086418936
299.9885377652893
299.9793703784359
299.9710274548786
299.9655803505746
299.963702425096
299.9634794131943
299.9634760968789
299.9634964150596
299.9635593040955
299.9637083211595
299.9639886081013
299.9644536715501
299.965162605348
299.9661796503793
299.9675729767197
299.9694139896929
299.9717768682756
299.97473747775
299.9783720081384
299.9827566883971
299.9879676392744
299.9940760884691
300.0011303804323
300.0091021764144
300.0177324212833
300.0261815400344
300.0327183015496
300.0358184367566
300.0364383432458
300.0364654892698
300.0364602093742
300.036419775402
300.0363162737826
300.0361041707179
300.0357334288331
300.035145871519
300.0342762898547
300.0330520069668
300.0313931398499
300.0292133633882
300.0264203182238
300.0229157386854
300.0185970016827
300.0133612697504
300.0071135497543
299.9997887381837
299.991421163793
299.9823369965826
299.9735531427726
299.9670222958318
299.964166792338
299.96366628389
299.9636487164237
299.9636611095017
299.9637051027688
299.963822080849
299.9640536440974
299.964451089718
299.9650712129908
299.965976116799
299.9672321558323
299.9689094844987
299.9710815136955
299.9738236803116
299.9772123375859
299.9813247846573
299.9862390213474
299.9920298194536
299.9987563470072
300.006425396258
300.0148788752339
300.023508408831
300.0308493982838
300.0350507903251
300.0362054333307
300.03629914527
300.0362982747655
300.0362705114696
300.036192797952
300.0360212861547
300.0357092359777
300.0352012606368
300.0344349194011
300.0333402050377
300.0318398886864
300.0298500336381
300.0272800260942
300.0240327023633
300.020005986957
300.0150961489845
300.0092032556572
300.0022469466461
299.9942172234574
299.9853174609933
299.9762956250658
299.9688461378653
299.9648597861691
299.9638849642139
299.9638202978891
299.9638277665122
299.9638566386503
299.963946316284
299.9641348989689
299.9644715024455
299.9650105603076
299.9658120253131
299.9669404074303
299.9684644694814
299.9704565395755
299.9729912585397
299.9761447981
299.9799950189502
299.9846209214015
299.9900994010512
299.9964971176629
300.0038457829854
300.0120610424511
300.0207204555932
300.0286571396252
300.0339646601029
300.0358835642846
300.0361307446109
300.0361354364766
300.0361173818642
300.0360611090883
300.0359247288505
300.0356648908826
300.0352288337746
300.0345568484777
300.0335816311235
300.032228704758
300.0304166473325
300.0280568672937
300.0250538434332
300.0213067408789
300.0167117746477
300.0111658358686
300.0045781341081
299.9969073173245
299.9882655180742
299.979178753894
299.9710251883536
299.9658615412923
299.9641756998944
299.9639931161528
299.9639958298067
299.9640128924813
299.9640799491181
299.9642310848092
299.964513524901
299.9649793048596
299.9656863246481
299.9666973669426
299.9680798143342
299.9699048895416
299.9722465714778
299.97518107781
299.9787869079933
299.9831440407049
299.9883313937577
299.9944213906203
300.0014623277145
300.0094177153807
300.0179930671106
300.026269585766
300.0324577641735
300.0352046591341
300.0356983362569
300.0357163306883
300.03570454752
300.0356618201147
300.0355478120679
300.0353210320492
300.0349302669575
300.0343186950035
300.0334241006142
300.0321802228429
300.0305184971627
300.0283706481546
300.0256727888361
300.0223730394829
300.0184489306204
300.0139526613531
300.0091250231014
300.0046048874827
300.0014531779209
300.0002058037259
300.0000086059254
300.000000069047
300.0000000000721
300.0000000000005
300.000000000001
300.000000000001
300.0000000000003
300.0000000000003
300.0000000000007
300.0000000000011
300.0000000000006
300.0000000000001
299.9999999999999
300.0000000000001
299.9999999999998
299.9999999999993
299.9999999999987
299.9999999999989
299.9999999999986
299.9999999999985
299.9999999999988
299.999999999999
299.9999999999991
299.999999999999
)
;

boundaryField
{
    inlet
    {
        type            fixedValue;
        value           uniform 300;
    }
    outlet
    {
        type            characteristicVelocityInletOutletTemperature;
        UName           U;
        pName           p;
        TName           T;
        phiName         phi;
        rhoName         rho;
        U               (0 0 0);
        p               101325;
        T               300;
        value           uniform 299.999999999999;
    }
    frontAndBack
    {
        type            empty;
    }
}


// ************************************************************************* //
