/*--------------------------------*- C++ -*----------------------------------*\
| =========                 |                                                 |
| \\      /  F ield         | OpenFOAM: The Open Source CFD Toolbox           |
|  \\    /   O peration     | Version:  v2012                                 |
|   \\  /    A nd           | Website:  www.openfoam.com                      |
|    \\/     M anipulation  |                                                 |
\*---------------------------------------------------------------------------*/
FoamFile
{
    version     2.0;
    format      ascii;
    class       volVectorField;
    location    "0.007";
    object      U;
}
// * * * * * * * * * * * * * * * * * * * * * * * * * * * * * * * * * * * * * //

dimensions      [0 1 -1 0 0 0 0];


internalField   nonuniform List<vector> 
1000
(
(-0.001014349245241199 0 0)
(-0.03285889713618926 0 0)
(-0.04107540831227883 0 0)
(-0.05634544918947854 0 0)
(-0.07036628776747078 0 0)
(-0.08349044133353427 0 0)
(-0.09470658906786242 0 0)
(-0.1043066043236521 0 0)
(-0.112690116056826 0 0)
(-0.1185771692633386 0 0)
(-0.1203091060538403 0 0)
(-0.1202257578711287 0 0)
(-0.1195517738700861 0 0)
(-0.1172896139743196 0 0)
(-0.112743445735758 0 0)
(-0.1056363726507295 0 0)
(-0.09622171747267257 0 0)
(-0.08494998668914547 0 0)
(-0.07220921777909751 0 0)
(-0.05825805210739692 0 0)
(-0.04328978396639354 0 0)
(-0.02751403587629175 0 0)
(-0.01119455944851145 0 0)
(0.005363355660731016 0 0)
(0.02183885703918375 0 0)
(0.03790204296836119 0 0)
(0.05323570567494811 0 0)
(0.06763797225093988 0 0)
(0.08114635734656125 0 0)
(0.09392586158915185 0 0)
(0.1056113821482423 0 0)
(0.1143235947365281 0 0)
(0.1179722752941409 0 0)
(0.1183899779893397 0 0)
(0.1183354006739666 0 0)
(0.1177389734603036 0 0)
(0.1161684519553553 0 0)
(0.1129235667936387 0 0)
(0.1074497550345926 0 0)
(0.09942826303155325 0 0)
(0.08890510353458704 0 0)
(0.07625163370309807 0 0)
(0.06200531779414423 0 0)
(0.04668432474607604 0 0)
(0.03067790631527193 0 0)
(0.01425053391421601 0 0)
(-0.002374610440664398 0 0)
(-0.01893675588811406 0 0)
(-0.03514735573016597 0 0)
(-0.05079551863562176 0 0)
(-0.0658496797146657 0 0)
(-0.08041106440691935 0 0)
(-0.09436958376963675 0 0)
(-0.1066128955868022 0 0)
(-0.1145632846782481 0 0)
(-0.1171298526194678 0 0)
(-0.1173228159425753 0 0)
(-0.1171634886899282 0 0)
(-0.1166672019274311 0 0)
(-0.1152800687664043 0 0)
(-0.1125275210685274 0 0)
(-0.1078741427109539 0 0)
(-0.1009066331070667 0 0)
(-0.09143476567500031 0 0)
(-0.07956530258633401 0 0)
(-0.06567821259994114 0 0)
(-0.05031608622989662 0 0)
(-0.03404662256718544 0 0)
(-0.01736030390627253 0 0)
(-0.0006252589950504603 0 0)
(0.01591312935524154 0 0)
(0.03211393812364603 0 0)
(0.04793569602783844 0 0)
(0.06344763103351642 0 0)
(0.07875221727935972 0 0)
(0.09356632089964365 0 0)
(0.1063093579914153 0 0)
(0.1140389314318864 0 0)
(0.116227167272058 0 0)
(0.1163406678759137 0 0)
(0.1162784815973632 0 0)
(0.1158097590431302 0 0)
(0.1146588325531828 0 0)
(0.1123444262342936 0 0)
(0.1083981809071729 0 0)
(0.1023834539770739 0 0)
(0.09399495498018445 0 0)
(0.08313643126151535 0 0)
(0.06996992308574458 0 0)
(0.05490400034957563 0 0)
(0.03850966670328519 0 0)
(0.02139454680721115 0 0)
(0.00408956696166414 0 0)
(-0.01302445827630207 0 0)
(-0.02976202041782518 0 0)
(-0.04615175877392036 0 0)
(-0.06237663204940831 0 0)
(-0.07853240275344207 0 0)
(-0.0940528635484254 0 0)
(-0.1068384966033901 0 0)
(-0.1138696846470863 0 0)
(-0.1155722711730031 0 0)
(-0.1156538036171298 0 0)
(-0.1155188399389418 0 0)
(-0.1151026539493602 0 0)
(-0.1140142402897346 0 0)
(-0.1118884801467149 0 0)
(-0.1082913100351216 0 0)
(-0.1028103059159711 0 0)
(-0.09511644393264927 0 0)
(-0.085041841039183 0 0)
(-0.07263437654544956 0 0)
(-0.05817301336337382 0 0)
(-0.04213663503919955 0 0)
(-0.02512286318954044 0 0)
(-0.007724410355793599 0 0)
(0.009601715203285354 0 0)
(0.0266210904241748 0 0)
(0.04333437688259646 0 0)
(0.05990486627748821 0 0)
(0.07643378157032683 0 0)
(0.09237968150133173 0 0)
(0.1056179270648626 0 0)
(0.1130100761854632 0 0)
(0.1148454966540548 0 0)
(0.1149211826036765 0 0)
(0.1148673974163173 0 0)
(0.1144980400095416 0 0)
(0.1135952837376521 0 0)
(0.1117853595339354 0 0)
(0.108680698230427 0 0)
(0.1038802504723947 0 0)
(0.09702894958143181 0 0)
(0.08787642703909489 0 0)
(0.07634152376492957 0 0)
(0.06256036012105996 0 0)
(0.04689045622795333 0 0)
(0.02985839126351123 0 0)
(0.01206056066102814 0 0)
(-0.005965052873352185 0 0)
(-0.02386891810036875 0 0)
(-0.04156514582110126 0 0)
(-0.05916416510096079 0 0)
(-0.07665473414509523 0 0)
(-0.09320060305035056 0 0)
(-0.1062755401317359 0 0)
(-0.1129110396780024 0 0)
(-0.1143350605184021 0 0)
(-0.1143928245944247 0 0)
(-0.1142822145939429 0 0)
(-0.1139397753256473 0 0)
(-0.1130562623586139 0 0)
(-0.1113332881497825 0 0)
(-0.1084074202927109 0 0)
(-0.103907395783515 0 0)
(-0.09749179426844987 0 0)
(-0.0889055305783789 0 0)
(-0.07803285930694066 0 0)
(-0.06493869182898455 0 0)
(-0.04988861904538831 0 0)
(-0.03332828282379419 0 0)
(-0.01580409693100332 0 0)
(0.002162631032694538 0 0)
(0.02020088593166535 0 0)
(0.03815901687839409 0 0)
(0.05606540065068386 0 0)
(0.07388279406113214 0 0)
(0.09086152556641926 0 0)
(0.1046042381951464 0 0)
(0.1119743909476001 0 0)
(0.1137196405367929 0 0)
(0.1137930574637813 0 0)
(0.1137518653559961 0 0)
(0.1134585172052033 0 0)
(0.112736323122878 0 0)
(0.1112776853755499 0 0)
(0.1087546076384357 0 0)
(0.1048101261234084 0 0)
(0.09909743311975489 0 0)
(0.0913200932022484 0 0)
(0.08128474313479336 0 0)
(0.06895376709290336 0 0)
(0.05447692986145995 0 0)
(0.03818598171677889 0 0)
(0.02054673732533232 0 0)
(0.002065609423610083 0 0)
(-0.0168382216261984 0 0)
(-0.03593642302486756 0 0)
(-0.05515630079131486 0 0)
(-0.07425489108125939 0 0)
(-0.09204947526302819 0 0)
(-0.1056069782707135 0 0)
(-0.1120613120278117 0 0)
(-0.1133289846075351 0 0)
(-0.1133753478930723 0 0)
(-0.1132833653031553 0 0)
(-0.1129990581735859 0 0)
(-0.1122673426657295 0 0)
(-0.110838143458641 0 0)
(-0.1084008108570784 0 0)
(-0.1046248457314059 0 0)
(-0.09918414529074443 0 0)
(-0.09179791413185978 0 0)
(-0.08227301648363472 0 0)
(-0.07054464140725229 0 0)
(-0.0567098267993147 0 0)
(-0.04103629859409182 0 0)
(-0.02392449822255074 0 0)
(-0.005821214919198901 0 0)
(0.0128868841228894 0 0)
(0.03195399104739574 0 0)
(0.05126288138728131 0 0)
(0.07058545525934368 0 0)
(0.08889913075685463 0 0)
(0.1034627696597748 0 0)
(0.1110472976146908 0 0)
(0.1127874429815433 0 0)
(0.1128643848812322 0 0)
(0.1128332005467527 0 0)
(0.112596495883035 0 0)
(0.1120084646730364 0 0)
(0.1108102067594059 0 0)
(0.1087208879978951 0 0)
(0.1054245001703791 0 0)
(0.1005970256320832 0 0)
(0.09393391037380359 0 0)
(0.08519026793580489 0 0)
(0.07422632875149723 0 0)
(0.0610430903614587 0 0)
(0.04579561114395305 0 0)
(0.0287771687318873 0 0)
(0.01036459946000539 0 0)
(-0.009076378552359127 0 0)
(-0.02927998346576126 0 0)
(-0.05004595093712315 0 0)
(-0.07089841369026681 0 0)
(-0.09025738759788389 0 0)
(-0.1046856423946442 0 0)
(-0.1112662074617783 0 0)
(-0.1124863653780962 0 0)
(-0.1125284470138181 0 0)
(-0.1124520996869794 0 0)
(-0.1122141271401182 0 0)
(-0.1115992202493571 0 0)
(-0.1103943379259116 0 0)
(-0.1083309708294395 0 0)
(-0.1051157562066539 0 0)
(-0.1004461095069684 0 0)
(-0.0940399259935568 0 0)
(-0.08566797443953481 0 0)
(-0.07518845853459856 0 0)
(-0.06258107582490781 0 0)
(-0.04796657989804596 0 0)
(-0.03159214945835265 0 0)
(-0.01377749790920599 0 0)
(0.005161276142018367 0 0)
(0.02497690898357517 0 0)
(0.0454789990079912 0 0)
(0.06629167587123466 0 0)
(0.08613960766833582 0 0)
(0.1019093302026606 0 0)
(0.1100923928429627 0 0)
(0.1119816836421739 0 0)
(0.1120758584580135 0 0)
(0.1120533565057867 0 0)
(0.1118620651974716 0 0)
(0.1113791765825657 0 0)
(0.1103826510165891 0 0)
(0.1086297908285205 0 0)
(0.1058410505356141 0 0)
(0.1017193689467839 0 0)
(0.09596854416564649 0 0)
(0.0883230939798909 0 0)
(0.07858453514806425 0 0)
(0.06665314880063745 0 0)
(0.05254642382881086 0 0)
(0.03639922732478124 0 0)
(0.01843567034947831 0 0)
(-0.001092772177977938 0 0)
(-0.02196648820869624 0 0)
(-0.04394422034619748 0 0)
(-0.06640213970814966 0 0)
(-0.08745785244800597 0 0)
(-0.1032042963209609 0 0)
(-0.1103964901032885 0 0)
(-0.1117449605483175 0 0)
(-0.1117941897638044 0 0)
(-0.1117329998891014 0 0)
(-0.1115367956722102 0 0)
(-0.1110190698537379 0 0)
(-0.1099955281976471 0 0)
(-0.1082309394726533 0 0)
(-0.1054642380656908 0 0)
(-0.1014182123702684 0 0)
(-0.09582085843376374 0 0)
(-0.08842931314034792 0 0)
(-0.07905750586081649 0 0)
(-0.06760634477665797 0 0)
(-0.0540852078573985 0 0)
(-0.03860887805218464 0 0)
(-0.02136570239624354 0 0)
(-0.002568214132809238 0 0)
(0.01759068069407577 0 0)
(0.03891642680796591 0 0)
(0.06096952405154327 0 0)
(0.08234115173752182 0 0)
(0.09965646125080331 0 0)
(0.1089499151691034 0 0)
(0.1112397285256722 0 0)
(0.1113799413809887 0 0)
(0.1113659585805183 0 0)
(0.1112140940207171 0 0)
(0.1108197752107552 0 0)
(0.1099882086197559 0 0)
(0.1085072918370368 0 0)
(0.1061284836285064 0 0)
(0.1025812448899355 0 0)
(0.09758485359549593 0 0)
(0.09087013041572475 0 0)
(0.08220695704462978 0 0)
(0.07142963280353347 0 0)
(0.05845471922622333 0 0)
(0.04328859839204389 0 0)
(0.02601581518100516 0 0)
(0.006762098302460668 0 0)
(-0.01433773790443063 0 0)
(-0.03706902418695336 0 0)
(-0.06077481771713866 0 0)
(-0.08346635312098806 0 0)
(-0.1009409748988945 0 0)
(-0.1093352551619898 0 0)
(-0.1110537932155438 0 0)
(-0.1111307128578449 0 0)
(-0.1110840434259768 0 0)
(-0.1109280511281193 0 0)
(-0.1104966167986597 0 0)
(-0.1096281395370093 0 0)
(-0.1081131863844443 0 0)
(-0.1057175656382528 0 0)
(-0.1021878920024593 0 0)
(-0.09726682154617225 0 0)
(-0.09071015793028989 0 0)
(-0.08230821618966619 0 0)
(-0.07191088287033016 0 0)
(-0.05944712949601586 0 0)
(-0.04492709646189447 0 0)
(-0.02842476578414813 0 0)
(-0.01004888687405588 0 0)
(0.01008304333888669 0 0)
(0.0318170725607129 0 0)
(0.05473209710525719 0 0)
(0.07744026741410856 0 0)
(0.09651321948334751 0 0)
(0.1074617441993874 0 0)
(0.1105018173398996 0 0)
(0.1107432447368344 0 0)
(0.1107378281391439 0 0)
(0.1106209444424137 0 0)
(0.1103046188343517 0 0)
(0.1096139669061045 0 0)
(0.1083614314947966 0 0)
(0.1063239773848807 0 0)
(0.1032548660499403 0 0)
(0.09889086527567793 0 0)
(0.09296787075606371 0 0)
(0.08524091887144657 0 0)
(0.07550300861887205 0 0)
(0.06360036772658258 0 0)
(0.04944301179671309 0 0)
(0.03300260624100113 0 0)
(0.01429216780133021 0 0)
(-0.006646687482654708 0 0)
(-0.02966610271924242 0 0)
(-0.05417409859806996 0 0)
(-0.07827958447965983 0 0)
(-0.09774410539413213 0 0)
(-0.1079457782263048 0 0)
(-0.1103651843830149 0 0)
(-0.1105115374406544 0 0)
(-0.1104777483221779 0 0)
(-0.1103599218731349 0 0)
(-0.1100071500026379 0 0)
(-0.1092761076774681 0 0)
(-0.1079773266292597 0 0)
(-0.105898512365491 0 0)
(-0.1028070674170944 0 0)
(-0.09846103742126215 0 0)
(-0.09262102454993691 0 0)
(-0.08506647538223329 0 0)
(-0.07561575041880597 0 0)
(-0.06414221526607355 0 0)
(-0.05057821604131617 0 0)
(-0.03490719280128896 0 0)
(-0.01714862868218519 0 0)
(0.00265614310420781 0 0)
(0.02441557473361991 0 0)
(0.04778328786387496 0 0)
(0.07152012343536553 0 0)
(0.09237563606831457 0 0)
(0.1054509668927389 0 0)
(0.109694341449951 0 0)
(0.1101431589071756 0 0)
(0.1101475386867356 0 0)
(0.1100611413002186 0 0)
(0.1098141075774989 0 0)
(0.109246633244992 0 0)
(0.1081911941824797 0 0)
(0.1064454116986193 0 0)
(0.1037829766047084 0 0)
(0.09995763184147197 0 0)
(0.09471441765842857 0 0)
(0.08780365594671306 0 0)
(0.07899418910382645 0 0)
(0.06808583233424254 0 0)
(0.05492062403229894 0 0)
(0.03938545445182103 0 0)
(0.02140196042432161 0 0)
(0.000925840279127817 0 0)
(-0.02197806992611529 0 0)
(-0.046842064402561 0 0)
(-0.07202127528428176 0 0)
(-0.09351620138375148 0 0)
(-0.1060522709663564 0 0)
(-0.1096183778472543 0 0)
(-0.1099199486001879 0 0)
(-0.1098976229149136 0 0)
(-0.1098144452767432 0 0)
(-0.1095329453917515 0 0)
(-0.1089255038761147 0 0)
(-0.107818074330372 0 0)
(-0.1060162777393398 0 0)
(-0.1033050475689717 0 0)
(-0.0994567640000764 0 0)
(-0.0942394629486258 0 0)
(-0.08742933787211746 0 0)
(-0.07882646502499105 0 0)
(-0.06826725634816658 0 0)
(-0.05562886621414347 0 0)
(-0.04082736701695331 0 0)
(-0.02381154262937174 0 0)
(-0.004555312718809647 0 0)
(0.0169172202401895 0 0)
(0.04036038015748028 0 0)
(0.06475718595775996 0 0)
(0.08722500465138691 0 0)
(0.1027285136120692 0 0)
(0.10870971029724 0 0)
(0.1095617496691077 0 0)
(0.109581236987824 0 0)
(0.1095212318568914 0 0)
(0.1093350382800871 0 0)
(0.1088757645372211 0 0)
(0.1079929690683408 0 0)
(0.1065009637540942 0 0)
(0.1041907422198817 0 0)
(0.1008315738736807 0 0)
(0.09617919064802909 0 0)
(0.08998512218540124 0 0)
(0.08200563916061797 0 0)
(0.0720118176949865 0 0)
(0.05980020350229286 0 0)
(0.04519713179939256 0 0)
(0.02805448025210896 0 0)
(0.008255928571219692 0 0)
(-0.01421620792556594 0 0)
(-0.03904014525867244 0 0)
(-0.06489167744838448 0 0)
(-0.08823142328654925 0 0)
(-0.1034539279629413 0 0)
(-0.1087197452944269 0 0)
(-0.1093417905022725 0 0)
(-0.1093341874521891 0 0)
(-0.1092811360794399 0 0)
(-0.1090626808866242 0 0)
(-0.1085662763053561 0 0)
(-0.1076299140096519 0 0)
(-0.1060740964831548 0 0)
(-0.1036984339945522 0 0)
(-0.1002880150019428 0 0)
(-0.09561915683104147 0 0)
(-0.08946921664478649 0 0)
(-0.0816286809598617 0 0)
(-0.07191034891123123 0 0)
(-0.06015370090050867 0 0)
(-0.04622687554221456 0 0)
(-0.03002541181354757 0 0)
(-0.01146776450173729 0 0)
(0.009484331960099608 0 0)
(0.03268842538913787 0 0)
(0.05737129803152843 0 0)
(0.081129613827815 0 0)
(0.09912834224088486 0 0)
(0.1073954068806739 0 0)
(0.1089687930574016 0 0)
(0.1090325359871339 0 0)
(0.1089931376458254 0 0)
(0.1088594347481119 0 0)
(0.1084945521444571 0 0)
(0.1077637387543362 0 0)
(0.1064949340052731 0 0)
(0.1044938669122272 0 0)
(0.1015437545472637 0 0)
(0.09741132329393755 0 0)
(0.09185265155612721 0 0)
(0.0846190842545388 0 0)
(0.07546545701098675 0 0)
(0.06415943705402695 0 0)
(0.05048575746027687 0 0)
(0.03424531191024899 0 0)
(0.0152651561781236 0 0)
(-0.006545315304769986 0 0)
(-0.03100600086127179 0 0)
(-0.05712498559114527 0 0)
(-0.08195070115834641 0 0)
(-0.09996413774609027 0 0)
(-0.1075254278985645 0 0)
(-0.1087555601942967 0 0)
(-0.1087835657966433 0 0)
(-0.1087540544400378 0 0)
(-0.1085899568580894 0 0)
(-0.1081922777432508 0 0)
(-0.1074090203309712 0 0)
(-0.1060734125861493 0 0)
(-0.1039974055146668 0 0)
(-0.100977221902609 0 0)
(-0.09679750706559266 0 0)
(-0.09123925274956829 0 0)
(-0.08408888255461405 0 0)
(-0.07514480172471924 0 0)
(-0.06422173159417223 0 0)
(-0.05115490636443817 0 0)
(-0.0358010476642296 0 0)
(-0.01803506735362588 0 0)
(0.002233835366232163 0 0)
(0.02495542942131337 0 0)
(0.0495859720998162 0 0)
(0.07423173516481166 0 0)
(0.09455114753059303 0 0)
(0.1055535010382805 0 0)
(0.1083098812830696 0 0)
(0.1084982170223007 0 0)
(0.1084729426415606 0 0)
(0.1083827377506502 0 0)
(0.1080993796289589 0 0)
(0.1075021883388663 0 0)
(0.10643063538068 0 0)
(0.1047033467636211 0 0)
(0.102116046262544 0 0)
(0.09844619232541849 0 0)
(0.09345623431558511 0 0)
(0.08689756708338274 0 0)
(0.07851734693668717 0 0)
(0.06806609556884985 0 0)
(0.055301034369569 0 0)
(0.03998724078958921 0 0)
(0.02190940922405106 0 0)
(0.0009169946184635708 0 0)
(-0.02293378942611083 0 0)
(-0.0489547222127109 0 0)
(-0.07481436988245095 0 0)
(-0.09545646503509142 0 0)
(-0.1058384251667712 0 0)
(-0.108122546546077 0 0)
(-0.108243662253694 0 0)
(-0.108229946040258 0 0)
(-0.108111402052017 0 0)
(-0.1078005606008991 0 0)
(-0.1071536916000591 0 0)
(-0.1060157472112537 0 0)
(-0.1042092068426284 0 0)
(-0.1015401118012778 0 0)
(-0.0978011962823027 0 0)
(-0.09277840278946237 0 0)
(-0.08625750940097117 0 0)
(-0.07802878006833214 0 0)
(-0.06789141473197996 0 0)
(-0.05565878947375719 0 0)
(-0.04115993551767191 0 0)
(-0.02423673041213979 0 0)
(-0.004756899513824152 0 0)
(0.01730507652289674 0 0)
(0.04160229016705994 0 0)
(0.0667197498773483 0 0)
(0.08899073763797756 0 0)
(0.1029700732086395 0 0)
(0.1074908347097507 0 0)
(0.1079706424523223 0 0)
(0.1079586943213901 0 0)
(0.107903539696791 0 0)
(0.1076889666828297 0 0)
(0.1072086621944496 0 0)
(0.10631153830906 0 0)
(0.1048278982026752 0 0)
(0.1025648254295024 0 0)
(0.09931001557922541 0 0)
(0.09483324123456502 0 0)
(0.08888916536707471 0 0)
(0.0812229884343916 0 0)
(0.07157613366963647 0 0)
(0.05968852832179016 0 0)
(0.04530122552394226 0 0)
(0.0281685789700376 0 0)
(0.00809307558396883 0 0)
(-0.0149704836240428 0 0)
(-0.0405899284490036 0 0)
(-0.06701430206981338 0 0)
(-0.08990037581073411 0 0)
(-0.1034359840734946 0 0)
(-0.1073621899934975 0 0)
(-0.1077098635889027 0 0)
(-0.107708639188544 0 0)
(-0.1076261826991549 0 0)
(-0.1073903582859847 0 0)
(-0.1068641489859243 0 0)
(-0.1059034216531024 0 0)
(-0.104339963700351 0 0)
(-0.101988673418697 0 0)
(-0.09865006270153949 0 0)
(-0.09411566957862302 0 0)
(-0.08817270612990379 0 0)
(-0.08060752739254422 0 0)
(-0.0712102933422615 0 0)
(-0.05978034646004761 0 0)
(-0.04612728224448769 0 0)
(-0.03006866929548871 0 0)
(-0.01144110547182629 0 0)
(0.009839849546723773 0 0)
(0.03358611049245717 0 0)
(0.05879552694789088 0 0)
(0.08253506604675906 0 0)
(0.09946481773269718 0 0)
(0.1063604213863894 0 0)
(0.1074306066405497 0 0)
(0.1074508093824836 0 0)
(0.1074217176642995 0 0)
(0.1072638657373577 0 0)
(0.1068847959365191 0 0)
(0.1061415436655483 0 0)
(0.104875183738491 0 0)
(0.1029032062838924 0 0)
(0.1000230217936024 0 0)
(0.09601221466895017 0 0)
(0.09063079384889458 0 0)
(0.08362574247010364 0 0)
(0.07473480880940019 0 0)
(0.06368797976546241 0 0)
(0.05021124011790448 0 0)
(0.03403814094360212 0 0)
(0.01493559729798564 0 0)
(-0.007220892989767942 0 0)
(-0.03220320741964283 0 0)
(-0.05876101200636984 0 0)
(-0.08336884487713452 0 0)
(-0.1001124227177508 0 0)
(-0.1063363482238891 0 0)
(-0.1071725330895889 0 0)
(-0.1071888923730614 0 0)
(-0.1071352338126076 0 0)
(-0.1069626920341263 0 0)
(-0.1065419509768738 0 0)
(-0.1057395415363431 0 0)
(-0.1043954301301238 0 0)
(-0.1023327718088061 0 0)
(-0.09935957575805027 0 0)
(-0.09527322929794137 0 0)
(-0.08986365143019022 0 0)
(-0.08291618995486257 0 0)
(-0.07421644969660549 0 0)
(-0.06355513294213608 0 0)
(-0.05072841457904933 0 0)
(-0.03553656330770112 0 0)
(-0.01779380540636612 0 0)
(0.002628521004471174 0 0)
(0.02566514341311692 0 0)
(0.05064853933316379 0 0)
(0.07534333516515151 0 0)
(0.0949369161141404 0 0)
(0.1047119584166765 0 0)
(0.1068388213531286 0 0)
(0.1069497626551205 0 0)
(0.1069372774936962 0 0)
(0.1068253397858809 0 0)
(0.1065332115572435 0 0)
(0.1059249680153645 0 0)
(0.1048522979622672 0 0)
(0.1031422579254537 0 0)
(0.1006014805845403 0 0)
(0.09701562011929844 0 0)
(0.0921513523573986 0 0)
(0.08575981725016139 0 0)
(0.07757873035015743 0 0)
(0.06733345961540436 0 0)
(0.05474160311090594 0 0)
(0.03952315836905832 0 0)
(0.02141885730235489 0 0)
(0.0002443851381020529 0 0)
(-0.02392822282084568 0 0)
(-0.05025607712753467 0 0)
(-0.07601695744530336 0 0)
(-0.09573245357145421 0 0)
(-0.1048487542030473 0 0)
(-0.1065989755055071 0 0)
(-0.1066725125353127 0 0)
(-0.1066393190320257 0 0)
(-0.1065194720012843 0 0)
(-0.1061897311143542 0 0)
(-0.1055278909291934 0 0)
(-0.1043813616602251 0 0)
(-0.1025811301777222 0 0)
(-0.09994247572182482 0 0)
(-0.09626869866983405 0 0)
(-0.0913532411006875 0 0)
(-0.0849824706107413 0 0)
(-0.07694048452832079 0 0)
(-0.06701298865475368 0 0)
(-0.05498713906557928 0 0)
(-0.04065143777805393 0 0)
(-0.02380464243010966 0 0)
(-0.004285621752191127 0 0)
(0.017932400684507 0 0)
(0.04244086147690933 0 0)
(0.06761030523404465 0 0)
(0.08939062212203398 0 0)
(0.1023217341005709 0 0)
(0.1061096197898662 0 0)
(0.1064518702773198 0 0)
(0.1064519905972045 0 0)
(0.1063753515621522 0 0)
(0.1061568807101742 0 0)
(0.1056663698734952 0 0)
(0.104765959698072 0 0)
(0.1032916838978654 0 0)
(0.1010589906570005 0 0)
(0.09786173000056116 0 0)
(0.09347405531623121 0 0)
(0.0876527204712873 0 0)
(0.08013787823490072 0 0)
(0.07065416388104659 0 0)
(0.0589156827678733 0 0)
(0.04463423031572535 0 0)
(0.02753187174611873 0 0)
(0.007380655935495931 0 0)
(-0.01586318235137738 0 0)
(-0.04167468622514565 0 0)
(-0.06804653588135093 0 0)
(-0.09026845736253905 0 0)
(-0.1026649890998825 0 0)
(-0.1059170815541211 0 0)
(-0.1061603714732161 0 0)
(-0.1061406285954517 0 0)
(-0.1060627454406325 0 0)
(-0.1058105727723902 0 0)
(-0.1052727045912837 0 0)
(-0.1043035076847224 0 0)
(-0.1027417408693293 0 0)
(-0.1004097159878386 0 0)
(-0.09711662131054265 0 0)
(-0.092660006922981 0 0)
(-0.08682869911307745 0 0)
(-0.0794073111759 0 0)
(-0.07017900940319699 0 0)
(-0.05892522502218037 0 0)
(-0.04542697761682871 0 0)
(-0.02947268601674357 0 0)
(-0.01087767747673691 0 0)
(0.01045210407284444 0 0)
(0.03430135534437082 0 0)
(0.05953416351625213 0 0)
(0.08293057799956401 0 0)
(0.09899732998395308 0 0)
(0.10509633933332 0 0)
(0.1059470679345023 0 0)
(0.1059657640669642 0 0)
(0.1059165734686744 0 0)
(0.1057592557587721 0 0)
(0.1053703211109724 0 0)
(0.104622580850212 0 0)
(0.10336026473969 0 0)
(0.1014073579370641 0 0)
(0.09856596379950266 0 0)
(0.09461815764335035 0 0)
(0.08932717186844819 0 0)
(0.08243732423349083 0 0)
(0.07367537573214139 0 0)
(0.06275543827008914 0 0)
(0.04938499348906975 0 0)
(0.03327342453324784 0 0)
(0.01416208123562814 0 0)
(-0.008076696135202637 0 0)
(-0.03315864026915775 0 0)
(-0.05967087952078409 0 0)
(-0.0838015394319005 0 0)
(-0.09956353292490676 0 0)
(-0.1050006859911049 0 0)
(-0.1056442460113424 0 0)
(-0.1056407342388205 0 0)
(-0.1055957275177632 0 0)
(-0.1054079033414012 0 0)
(-0.1049783888249075 0 0)
(-0.1041676062152705 0 0)
(-0.1028220911540644 0 0)
(-0.1007710333667109 0 0)
(-0.09782945881783231 0 0)
(-0.09379947675129212 0 0)
(-0.08847339436437188 0 0)
(-0.08163765100967067 0 0)
(-0.07307456177433723 0 0)
(-0.06256236722818861 0 0)
(-0.04987785785577094 0 0)
(-0.03480275289532213 0 0)
(-0.01713544724208888 0 0)
(0.003266129196354126 0 0)
(0.02632677154648514 0 0)
(0.05129448345190146 0 0)
(0.07573074318172281 0 0)
(0.09463025904207203 0 0)
(0.1035969532899185 0 0)
(0.1053981077868883 0 0)
(0.1054812244767924 0 0)
(0.1054508652424222 0 0)
(0.1053437243831996 0 0)
(0.105041456477228 0 0)
(0.1044282658084659 0 0)
(0.1033560160702806 0 0)
(0.1016569951690382 0 0)
(0.09914157945682202 0 0)
(0.09559996604562804 0 0)
(0.09080235249990615 0 0)
(0.08449846494790236 0 0)
(0.07641927304866769 0 0)
(0.06628132073592459 0 0)
(0.05379061093744653 0 0)
(0.03864865115251048 0 0)
(0.02057617183201621 0 0)
(-0.0006141716479824991 0 0)
(-0.02481642826065479 0 0)
(-0.05108808523194278 0 0)
(-0.07649720304146272 0 0)
(-0.09539538773553213 0 0)
(-0.1036572597847178 0 0)
(-0.1050979491045537 0 0)
(-0.1051428921420505 0 0)
(-0.1051205968642147 0 0)
(-0.1049853409634583 0 0)
(-0.1046493976423729 0 0)
(-0.1039792498651824 0 0)
(-0.1028292865876759 0 0)
(-0.1010353267783213 0 0)
(-0.0984182349798756 0 0)
(-0.09478506909427589 0 0)
(-0.08993232931937989 0 0)
(-0.08364911743713298 0 0)
(-0.07571813458536825 0 0)
(-0.06591642884596635 0 0)
(-0.05401893053202173 0 0)
(-0.03980312368408728 0 0)
(-0.023055376574759 0 0)
(-0.003600260336089604 0 0)
(0.01858622633040815 0 0)
(0.04304072080699395 0 0)
(0.06799622391623351 0 0)
(0.08922398745507575 0 0)
(0.1013800010942799 0 0)
(0.1047263173869947 0 0)
(0.1049988044385399 0 0)
(0.1049810175517679 0 0)
(0.1049133383490446 0 0)
(0.1046840702240949 0 0)
(0.1041887659223247 0 0)
(0.1032863129914364 0 0)
(0.1018173259217276 0 0)
(0.09960036897470477 0 0)
(0.09643376539605171 0 0)
(0.09209495667761697 0 0)
(0.08634001253827736 0 0)
(0.07890559762327776 0 0)
(0.06951232530425303 0 0)
(0.05786685620849726 0 0)
(0.04366671552586309 0 0)
(0.02661965597811715 0 0)
(0.006496479609514758 0 0)
(-0.01672678209997699 0 0)
(-0.04246637329802074 0 0)
(-0.06856661081602879 0 0)
(-0.09012104570408898 0 0)
(-0.1016497685352432 0 0)
(-0.1044629001573212 0 0)
(-0.1046478232328448 0 0)
(-0.104639771341848 0 0)
(-0.1045459370205107 0 0)
(-0.1042901771210297 0 0)
(-0.1037439201210165 0 0)
(-0.1027700128386175 0 0)
(-0.1012107440655227 0 0)
(-0.09889283752715923 0 0)
(-0.09562863719648364 0 0)
(-0.09121930100869634 0 0)
(-0.08545711374586577 0 0)
(-0.07812613008007711 0 0)
(-0.06900379518209115 0 0)
(-0.05786484050489174 0 0)
(-0.04448416247672848 0 0)
(-0.02863982796327169 0 0)
(-0.01013401399929966 0 0)
(0.01112617835137555 0 0)
(0.03488914944019561 0 0)
(0.05993017687305279 0 0)
(0.08288424966770212 0 0)
(0.09824165255651297 0 0)
(0.1037968733803463 0 0)
(0.1045083531721599 0 0)
(0.1045095393087261 0 0)
(0.1044721505026628 0 0)
(0.104302750485946 0 0)
(0.1039098047004054 0 0)
(0.1031582882739823 0 0)
(0.1018971508137445 0 0)
(0.09995306093627404 0 0)
(0.09713236859294991 0 0)
(0.09321991362419768 0 0)
(0.08797879603221677 0 0)
(0.08115236761236568 0 0)
(0.07246638631493245 0 0)
(0.0616298549684248 0 0)
(0.04833947353315595 0 0)
(0.03229567052768767 0 0)
(0.01324029189258116 0 0)
(-0.008943994629699862 0 0)
(-0.03393950993415708 0 0)
(-0.06022900237917488 0 0)
(-0.0838173235055408 0 0)
(-0.09874915602417478 0 0)
(-0.1036207882451062 0 0)
(-0.1041492022343965 0 0)
(-0.1041549546975507 0 0)
(-0.1040925484093194 0 0)
(-0.1039038623486154 0 0)
(-0.103465363583489 0 0)
(-0.1026483200371184 0 0)
(-0.1013011080132994 0 0)
(-0.09925625513448837 0 0)
(-0.09633133740689052 0 0)
(-0.09233187692360252 0 0)
(-0.08705296952969395 0 0)
(-0.08028001949031405 0 0)
(-0.07179089275555357 0 0)
(-0.06135936217800328 0 0)
(-0.04875671496591722 0 0)
(-0.03375372257917566 0 0)
(-0.01613691131157275 0 0)
(0.004232272237809954 0 0)
(0.02724194241920035 0 0)
(0.05204102140749119 0 0)
(0.07598075809286267 0 0)
(0.0938855369397639 0 0)
(0.1018322024526528 0 0)
(0.1032534227313631 0 0)
(0.10330013491708 0 0)
(0.1032785429295248 0 0)
(0.1031477691956277 0 0)
(0.1028200494944621 0 0)
(0.1021637158967621 0 0)
(0.1010335528333685 0 0)
(0.09926466203796555 0 0)
(0.09667717824669962 0 0)
(0.093079435197037 0 0)
(0.08827311410413632 0 0)
(0.08206072617294306 0 0)
(0.07425746975918385 0 0)
(0.06471326528745834 0 0)
(0.05336309095615294 0 0)
(0.04035789116389628 0 0)
(0.02639410821267437 0 0)
(0.01331966135049315 0 0)
(0.004203329150816652 0 0)
(0.0005952896965921059 0 0)
(2.489280962538361e-05 0 0)
(1.997422838950111e-07 0 0)
(2.320239017404284e-10 0 0)
(2.499772411973706e-11 0 0)
(2.409968315626218e-11 0 0)
(2.344598221338362e-11 0 0)
(2.224458662155037e-11 0 0)
(2.07780666891846e-11 0 0)
(1.939413680118802e-11 0 0)
(1.962102833583045e-11 0 0)
(1.990787938794486e-11 0 0)
(1.968100071637669e-11 0 0)
(1.908466656493216e-11 0 0)
(1.735641406121083e-11 0 0)
(1.690354914075813e-11 0 0)
(1.780330683079044e-11 0 0)
(1.82570705235229e-11 0 0)
(1.815187213451691e-11 0 0)
(1.866480805983848e-11 0 0)
(1.974189961705323e-11 0 0)
(2.085109353532e-11 0 0)
(2.23732736520666e-11 0 0)
(2.227415919363394e-11 0 0)
(2.181776056180338e-11 0 0)
)
;

boundaryField
{
    inlet
    {
        type            zeroGradient;
    }
    outlet
    {
        type            characteristicPressureInletOutletVelocity;
        UName           U;
        pName           p;
        TName           T;
        phiName         phi;
        rhoName         rho;
        U               (0 0 0);
        p               101325;
        T               300;
        value           uniform (2.181776056180338e-11 0 0);
    }
    frontAndBack
    {
        type            empty;
    }
}


// ************************************************************************* //
