/*--------------------------------*- C++ -*----------------------------------*\
| =========                 |                                                 |
| \\      /  F ield         | OpenFOAM: The Open Source CFD Toolbox           |
|  \\    /   O peration     | Version:  v2012                                 |
|   \\  /    A nd           | Website:  www.openfoam.com                      |
|    \\/     M anipulation  |                                                 |
\*---------------------------------------------------------------------------*/
FoamFile
{
    version     2.0;
    format      ascii;
    class       volVectorField;
    location    "0.007";
    object      UMean;
}
// * * * * * * * * * * * * * * * * * * * * * * * * * * * * * * * * * * * * * //

dimensions      [0 1 -1 0 0 0 0];


internalField   nonuniform List<vector> 
1000
(
(-4.024916078998372e-05 0 0)
(1.310662959310078e-05 0 0)
(4.082082236226012e-05 0 0)
(9.594817820418909e-05 0 0)
(0.0001605213553821576 0 0)
(0.0002356928830955905 0 0)
(0.000327109555871355 0 0)
(0.0004270437545036073 0 0)
(0.0005399367267625865 0 0)
(0.0006594246161089184 0 0)
(0.0007832990347083364 0 0)
(0.0009069793483310667 0 0)
(0.001030340676286309 0 0)
(0.001152011356878395 0 0)
(0.001270433830862017 0 0)
(0.001382685716232549 0 0)
(0.001486681888969118 0 0)
(0.001579874289800318 0 0)
(0.001661012425305691 0 0)
(0.001728234101966643 0 0)
(0.001780862020706225 0 0)
(0.001817436715529929 0 0)
(0.001837774236653391 0 0)
(0.001840950936490712 0 0)
(0.001827375419971192 0 0)
(0.001796818242595416 0 0)
(0.001750361022868611 0 0)
(0.001688387784407671 0 0)
(0.001612282054753594 0 0)
(0.001522391553067785 0 0)
(0.001419993659804396 0 0)
(0.001306541411263476 0 0)
(0.001186754286959223 0 0)
(0.00106493953738661 0 0)
(0.0009433055103236415 0 0)
(0.0008219163759496232 0 0)
(0.0007016671346737634 0 0)
(0.0005838756008219378 0 0)
(0.0004705349753712309 0 0)
(0.0003641011097836496 0 0)
(0.0002671501901769225 0 0)
(0.0001820799389559223 0 0)
(0.0001107758764570594 0 0)
(5.463449472745681e-05 0 0)
(1.454711751768585e-05 0 0)
(-8.860380667555845e-06 0 0)
(-1.529499733401667e-05 0 0)
(-4.654646621801273e-06 0 0)
(2.282724306773661e-05 0 0)
(6.671834957415807e-05 0 0)
(0.0001263786552485617 0 0)
(0.0002012798652275687 0 0)
(0.0002909064705295064 0 0)
(0.0003943249011453959 0 0)
(0.0005085175309554299 0 0)
(0.0006280851897499299 0 0)
(0.0007487032124945582 0 0)
(0.0008692631009694637 0 0)
(0.0009895769023047917 0 0)
(0.001108763617272566 0 0)
(0.001226015662054705 0 0)
(0.001339303031861468 0 0)
(0.00144682493838431 0 0)
(0.00154574799819631 0 0)
(0.001633917189117584 0 0)
(0.001708696992619225 0 0)
(0.001768649419821385 0 0)
(0.00181218989466998 0 0)
(0.001838993967563552 0 0)
(0.001848452330179183 0 0)
(0.00184097831746115 0 0)
(0.001816499028286817 0 0)
(0.001775748193417536 0 0)
(0.001718728975917584 0 0)
(0.001645998652700738 0 0)
(0.001557474898553729 0 0)
(0.00145465751322334 0 0)
(0.001340817386889806 0 0)
(0.001222146885758955 0 0)
(0.00110240657223516 0 0)
(0.0009828576085177084 0 0)
(0.0008635201600214685 0 0)
(0.0007450310699256953 0 0)
(0.0006283017772758579 0 0)
(0.0005147745667712114 0 0)
(0.0004063258342925401 0 0)
(0.0003052548513129327 0 0)
(0.0002140290325723998 0 0)
(0.0001351280988890505 0 0)
(7.068819197757071e-05 0 0)
(2.240381604251218e-05 0 0)
(-8.688262350883329e-06 0 0)
(-2.209128800731681e-05 0 0)
(-1.783392282533396e-05 0 0)
(3.820737707060553e-06 0 0)
(4.249141690236346e-05 0 0)
(9.795334154243134e-05 0 0)
(0.0001700873718620506 0 0)
(0.0002586851121332374 0 0)
(0.0003621997086571711 0 0)
(0.0004762593427787737 0 0)
(0.0005945711841767981 0 0)
(0.000713519922062655 0 0)
(0.0008323642984652255 0 0)
(0.0009510258620575877 0 0)
(0.001068775705930629 0 0)
(0.001185037282050831 0 0)
(0.00129822552440659 0 0)
(0.001406922618903728 0 0)
(0.001508728918018339 0 0)
(0.001601584337872202 0 0)
(0.001682764291496275 0 0)
(0.001750307090638077 0 0)
(0.001802045413462702 0 0)
(0.001836966405914989 0 0)
(0.001854066673258036 0 0)
(0.001853474510221782 0 0)
(0.001835097576335583 0 0)
(0.001799552563175845 0 0)
(0.001746759791656477 0 0)
(0.00167704341999585 0 0)
(0.001590304063171168 0 0)
(0.001488355443258933 0 0)
(0.001375357587217002 0 0)
(0.00125795595932435 0 0)
(0.001139691549825097 0 0)
(0.001021596951663756 0 0)
(0.0009036508550435218 0 0)
(0.0007863950911885708 0 0)
(0.0006704909994904649 0 0)
(0.0005571235333445224 0 0)
(0.0004477608012695539 0 0)
(0.0003443840911160999 0 0)
(0.0002491672122020638 0 0)
(0.0001645781978565383 0 0)
(9.29312480377283e-05 0 0)
(3.64256763857805e-05 0 0)
(-3.324919306790633e-06 0 0)
(-2.515930307057792e-05 0 0)
(-2.86366059117112e-05 0 0)
(-1.363728343030601e-05 0 0)
(1.961614690102054e-05 0 0)
(7.10580733157127e-05 0 0)
(0.0001405620953911119 0 0)
(0.0002278036250503265 0 0)
(0.0003306576267722982 0 0)
(0.000443960589064716 0 0)
(0.0005610944838596249 0 0)
(0.0006787600687932876 0 0)
(0.0007963166182370346 0 0)
(0.0009137396970974318 0 0)
(0.001030407110148535 0 0)
(0.00114587997461074 0 0)
(0.00125884508708224 0 0)
(0.001368150266021062 0 0)
(0.001471737456482681 0 0)
(0.001567780626261091 0 0)
(0.001653716580548821 0 0)
(0.001727495403883218 0 0)
(0.001786697433673025 0 0)
(0.001829808075371126 0 0)
(0.001855283748471805 0 0)
(0.001862663032629555 0 0)
(0.00185142092145085 0 0)
(0.001821838549730025 0 0)
(0.001773695248050299 0 0)
(0.001707259642910475 0 0)
(0.001622604828826099 0 0)
(0.001521909522571797 0 0)
(0.001409945551768801 0 0)
(0.001293661992222894 0 0)
(0.00117656676149245 0 0)
(0.001059621487662175 0 0)
(0.0009427778731654033 0 0)
(0.0008264994564406322 0 0)
(0.0007112929091102906 0 0)
(0.0005981564960567597 0 0)
(0.0004882795240218545 0 0)
(0.0003833770950688035 0 0)
(0.0002853348566834117 0 0)
(0.0001964524619419845 0 0)
(0.0001189872145547326 0 0)
(5.530718352726308e-05 0 0)
(7.375519582776014e-06 0 0)
(-2.309895031169332e-05 0 0)
(-3.507766952864157e-05 0 0)
(-2.782402963889324e-05 0 0)
(-1.093716336522024e-06 0 0)
(4.538375146252667e-05 0 0)
(0.0001115925027949163 0 0)
(0.000197049193394682 0 0)
(0.0002990283734754482 0 0)
(0.0004115748671049095 0 0)
(0.000527724840588731 0 0)
(0.0006443479595881964 0 0)
(0.0007608690634274665 0 0)
(0.0008772910859470488 0 0)
(0.0009930741681412312 0 0)
(0.001107880365122033 0 0)
(0.001220588921013918 0 0)
(0.001330247103832885 0 0)
(0.001435068822633183 0 0)
(0.001533451202069444 0 0)
(0.001623047038984546 0 0)
(0.001701870173393454 0 0)
(0.001767457645779408 0 0)
(0.001818028281858065 0 0)
(0.001851645324108504 0 0)
(0.001867301666390153 0 0)
(0.001863937104429864 0 0)
(0.001841306227551728 0 0)
(0.001798833781872504 0 0)
(0.001736560094434823 0 0)
(0.001654598130163324 0 0)
(0.001555449955918988 0 0)
(0.001444521553358456 0 0)
(0.001329188547890627 0 0)
(0.001213058649801772 0 0)
(0.001097061420497585 0 0)
(0.0009811309164811243 0 0)
(0.0008656718130945413 0 0)
(0.000751079049769731 0 0)
(0.0006382070464907907 0 0)
(0.0005280370525150714 0 0)
(0.0004220609452683913 0 0)
(0.00032191707959853 0 0)
(0.0002297012796984253 0 0)
(0.0001475324954616161 0 0)
(7.778347609011722e-05 0 0)
(2.257210522433098e-05 0 0)
(-1.604048492784903e-05 0 0)
(-3.651932930276513e-05 0 0)
(-3.752711222977229e-05 0 0)
(-1.822045761136303e-05 0 0)
(2.220095061090368e-05 0 0)
(8.405838315447966e-05 0 0)
(0.0001669084205814741 0 0)
(0.0002675639987113543 0 0)
(0.0003792663097524986 0 0)
(0.0004945659763587909 0 0)
(0.0006103230954459198 0 0)
(0.0007259854628587369 0 0)
(0.0008415738469530483 0 0)
(0.0009566185127962192 0 0)
(0.001070848043642783 0 0)
(0.001183296767323494 0 0)
(0.001293162581509883 0 0)
(0.001398885175029405 0 0)
(0.001499054264616455 0 0)
(0.001591542952053027 0 0)
(0.00167448339782978 0 0)
(0.001745474105158734 0 0)
(0.00180261399529783 0 0)
(0.001843740054895927 0 0)
(0.001867427740715628 0 0)
(0.001872138390033955 0 0)
(0.001857069993635225 0 0)
(0.001821174537453907 0 0)
(0.00176408332949228 0 0)
(0.001685747285381253 0 0)
(0.001588778316399411 0 0)
(0.001479101239247193 0 0)
(0.001364650002393407 0 0)
(0.001249346606845094 0 0)
(0.001134155452981546 0 0)
(0.001019005769551395 0 0)
(0.0009042511983024019 0 0)
(0.0007902058004425808 0 0)
(0.0006776061993344002 0 0)
(0.000567278795982415 0 0)
(0.0004605238130157082 0 0)
(0.0003587721565986741 0 0)
(0.0002639178698174092 0 0)
(0.0001779174793950783 0 0)
(0.0001030624173022554 0 0)
(4.151187120809763e-05 0 0)
(-4.479294175704949e-06 0 0)
(-3.302077304918144e-05 0 0)
(-4.228250489618916e-05 0 0)
(-3.084434936173031e-05 0 0)
(2.672392394744134e-06 0 0)
(5.907901132207271e-05 0 0)
(0.0001381968915276867 0 0)
(0.000236704769668209 0 0)
(0.0003472528598933578 0 0)
(0.0004617448967973315 0 0)
(0.0005767481925433956 0 0)
(0.0006916711989202794 0 0)
(0.0008065399289386324 0 0)
(0.0009209464750961029 0 0)
(0.001034668407213137 0 0)
(0.001146867403473826 0 0)
(0.001256852928275667 0 0)
(0.001363255988623897 0 0)
(0.001464827533370273 0 0)
(0.001559649260265652 0 0)
(0.001645982767392489 0 0)
(0.001721543303124031 0 0)
(0.001784399234215708 0 0)
(0.001832280300953261 0 0)
(0.00186347039691887 0 0)
(0.001876067245576058 0 0)
(0.001868771769670049 0 0)
(0.001840063186543904 0 0)
(0.00178908960750802 0 0)
(0.001715465143030089 0 0)
(0.001621599064490817 0 0)
(0.001513627526340036 0 0)
(0.00140009297259634 0 0)
(0.001285528641331932 0 0)
(0.00117104930399911 0 0)
(0.001056590277896973 0 0)
(0.0009424588073350357 0 0)
(0.0008289103212278583 0 0)
(0.0007165817182322183 0 0)
(0.0006061801903544984 0 0)
(0.0004988448451897062 0 0)
(0.0003958349676002813 0 0)
(0.0002988556875120333 0 0)
(0.000209704153758609 0 0)
(0.0001305492628422165 0 0)
(6.352497292346541e-05 0 0)
(1.096694136670758e-05 0 0)
(-2.500115022353026e-05 0 0)
(-4.219382266306969e-05 0 0)
(-3.871345969147979e-05 0 0)
(-1.26614536319929e-05 0 0)
(3.730577399273227e-05 0 0)
(0.000111461984188096 0 0)
(0.0002067659220623298 0 0)
(0.0003156666832873239 0 0)
(0.0004293118476073772 0 0)
(0.0005436281958351222 0 0)
(0.000657884538332736 0 0)
(0.0007721039221249385 0 0)
(0.0008859370453739167 0 0)
(0.0009991971839778315 0 0)
(0.001111151593631137 0 0)
(0.001221199360205356 0 0)
(0.00132812996488117 0 0)
(0.001430828832546166 0 0)
(0.001527563639974709 0 0)
(0.001616725717152729 0 0)
(0.001696166335110065 0 0)
(0.001763977853753541 0 0)
(0.001817861899439135 0 0)
(0.001855919425741508 0 0)
(0.001875996236009217 0 0)
(0.001876403537416662 0 0)
(0.001855216783635276 0 0)
(0.001811113033712903 0 0)
(0.001743258280295437 0 0)
(0.00165356030652887 0 0)
(0.001547942457941511 0 0)
(0.001435468736214425 0 0)
(0.001321596506638975 0 0)
(0.001207767152959063 0 0)
(0.001093940038301341 0 0)
(0.0009803798591194275 0 0)
(0.0008672950890823352 0 0)
(0.0007552375212002048 0 0)
(0.000644819871824949 0 0)
(0.0005370461687142211 0 0)
(0.0004330335499203591 0 0)
(0.0003343171474443412 0 0)
(0.0002425465049873829 0 0)
(0.0001597537493251594 0 0)
(8.800988610642992e-05 0 0)
(2.965629540007269e-05 0 0)
(-1.305222168560374e-05 0 0)
(-3.769937388718974e-05 0 0)
(-4.203673841147102e-05 0 0)
(-2.375166601957808e-05 0 0)
(1.899626269315783e-05 0 0)
(8.704379881964655e-05 0 0)
(0.0001779987323003143 0 0)
(0.0002845937171109494 0 0)
(0.0003972591780201385 0 0)
(0.0005109219604520339 0 0)
(0.0006245561158283317 0 0)
(0.0007381681165671665 0 0)
(0.0008514637902151367 0 0)
(0.0009642863553174073 0 0)
(0.001075993694257719 0 0)
(0.00118605698648136 0 0)
(0.001293399370993195 0 0)
(0.0013970193237999 0 0)
(0.001495346829336519 0 0)
(0.001586894819554594 0 0)
(0.001669652591710008 0 0)
(0.001741766885484316 0 0)
(0.001800964626714284 0 0)
(0.001845247578913734 0 0)
(0.001872306586531546 0 0)
(0.001880174652175488 0 0)
(0.001866618351710935 0 0)
(0.001829906231789086 0 0)
(0.001768724842432477 0 0)
(0.001684269510239634 0 0)
(0.001581814721134874 0 0)
(0.001470681331525148 0 0)
(0.001357496734003728 0 0)
(0.001244277239424917 0 0)
(0.001131043764044277 0 0)
(0.001018024063496444 0 0)
(0.0009053855708332769 0 0)
(0.000793606704691093 0 0)
(0.0006832229114699945 0 0)
(0.0005751216249530295 0 0)
(0.0004703017331593776 0 0)
(0.0003701496020918587 0 0)
(0.0002761805627033958 0 0)
(0.0001902901617430454 0 0)
(0.0001144648281250519 0 0)
(5.100333025031005e-05 0 0)
(2.214743618772541e-06 0 0)
(-2.935745363561312e-05 0 0)
(-4.123204253684469e-05 0 0)
(-3.07965551481858e-05 0 0)
(4.207174350037357e-06 0 0)
(6.520077535042317e-05 0 0)
(0.0001506786048643333 0 0)
(0.0002541454616530855 0 0)
(0.0003655730792381296 0 0)
(0.0004785833080730615 0 0)
(0.000591622467407503 0 0)
(0.0007046520745198962 0 0)
(0.0008174284470135398 0 0)
(0.0009298223682994308 0 0)
(0.001041269745259819 0 0)
(0.001151304330629449 0 0)
(0.001258962426116712 0 0)
(0.001363339394172892 0 0)
(0.001463006332415315 0 0)
(0.001556587613244088 0 0)
(0.001642204142456412 0 0)
(0.001718074207156045 0 0)
(0.001781981271256053 0 0)
(0.001831889872161503 0 0)
(0.001865412827225457 0 0)
(0.001880402161140502 0 0)
(0.001874409673073013 0 0)
(0.001845381056629512 0 0)
(0.001791553678722207 0 0)
(0.001713322441005614 0 0)
(0.001614962816549664 0 0)
(0.00150561843337248 0 0)
(0.001393173064561394 0 0)
(0.001280537566516082 0 0)
(0.001167872958266142 0 0)
(0.001055377108945049 0 0)
(0.0009431798125894009 0 0)
(0.0008316952575912382 0 0)
(0.0007213919278476071 0 0)
(0.0006130575110444908 0 0)
(0.0005075895738947697 0 0)
(0.0004062439802315039 0 0)
(0.0003104155578489059 0 0)
(0.0002218685876220593 0 0)
(0.000142494599177625 0 0)
(7.45203770952526e-05 0 0)
(2.025389954128996e-05 0 0)
(-1.77122181726464e-05 0 0)
(-3.676155316462063e-05 0 0)
(-3.408517434428355e-05 0 0)
(-7.101793867216369e-06 0 0)
(4.614365287672794e-05 0 0)
(0.0001251192128715462 0 0)
(0.0002244991363518704 0 0)
(0.0003342637979856911 0 0)
(0.000446578588708593 0 0)
(0.0005590405347731501 0 0)
(0.0006715022998764715 0 0)
(0.0007837665090224899 0 0)
(0.0008957294374575057 0 0)
(0.00100689649936786 0 0)
(0.001116857260076995 0 0)
(0.001224745715297243 0 0)
(0.001329742216174259 0 0)
(0.001430540712903445 0 0)
(0.001525867202738728 0 0)
(0.001613965630433047 0 0)
(0.001693133920144228 0 0)
(0.001761230658603163 0 0)
(0.001816226181109829 0 0)
(0.001855711342277524 0 0)
(0.001877434633080315 0 0)
(0.001878813920409937 0 0)
(0.001857558688089318 0 0)
(0.001811527931630521 0 0)
(0.001740337826193692 0 0)
(0.001647059636018117 0 0)
(0.001540146206145079 0 0)
(0.001428579687460697 0 0)
(0.001316514697057105 0 0)
(0.001204402603579028 0 0)
(0.001092422386017772 0 0)
(0.0009806687217583392 0 0)
(0.0008694988509503412 0 0)
(0.0007593224523675847 0 0)
(0.000650839406852661 0 0)
(0.0005448588725981764 0 0)
(0.0004425213864224057 0 0)
(0.0003451130394762789 0 0)
(0.000254274418952828 0 0)
(0.000171798006926152 0 0)
(9.982117769398316e-05 0 0)
(4.061343809772522e-05 0 0)
(-3.23908892752214e-06 0 0)
(-2.905905500927049e-05 0 0)
(-3.392579053722951e-05 0 0)
(-1.502873572941709e-05 0 0)
(3.002810745931242e-05 0 0)
(0.0001016466160458397 0 0)
(0.0001959085392625158 0 0)
(0.0003033870154423273 0 0)
(0.0004148889438165794 0 0)
(0.0005267825345049746 0 0)
(0.0006386856155066679 0 0)
(0.0007504390147481481 0 0)
(0.0008619624194459714 0 0)
(0.0009728240614399302 0 0)
(0.001082664758395367 0 0)
(0.001190704458197947 0 0)
(0.001296199761056423 0 0)
(0.001397953155332571 0 0)
(0.001494783594397208 0 0)
(0.001585048903434854 0 0)
(0.001667129920408151 0 0)
(0.001738970733763827 0 0)
(0.001798575699497169 0 0)
(0.001843553293635992 0 0)
(0.001871605929935234 0 0)
(0.001880082066724882 0 0)
(0.001866532354745291 0 0)
(0.001828524019847715 0 0)
(0.001764988870921498 0 0)
(0.001677747411523431 0 0)
(0.001574090274601407 0 0)
(0.001463673152304122 0 0)
(0.001352186243675718 0 0)
(0.00124061441141995 0 0)
(0.001129146257480191 0 0)
(0.001017842990521014 0 0)
(0.0009070112010300108 0 0)
(0.0007970073886738196 0 0)
(0.0006884531550774802 0 0)
(0.0005820788289811428 0 0)
(0.0004789219576944855 0 0)
(0.0003801693975004194 0 0)
(0.0002873458438929409 0 0)
(0.0002021444557627454 0 0)
(0.0001266037658580174 0 0)
(6.29307706997985e-05 0 0)
(1.366646951187078e-05 0 0)
(-1.850434487776953e-05 0 0)
(-3.061552810206597e-05 0 0)
(-1.970936713240349e-05 0 0)
(1.694404802427067e-05 0 0)
(8.056075905653602e-05 0 0)
(0.0001686899569048911 0 0)
(0.0002730597970667967 0 0)
(0.0003835118971876377 0 0)
(0.000494831184877918 0 0)
(0.0006061828252263785 0 0)
(0.0007174241636046854 0 0)
(0.0008284964468897681 0 0)
(0.0009390255148832054 0 0)
(0.001048699676401739 0 0)
(0.00115681619652393 0 0)
(0.001262701232027752 0 0)
(0.001365254790165658 0 0)
(0.001463381456462695 0 0)
(0.001555544920882295 0 0)
(0.001640209246577515 0 0)
(0.001715409012422177 0 0)
(0.001779200717718127 0 0)
(0.00182923707716352 0 0)
(0.001863215742757486 0 0)
(0.001878464716938751 0 0)
(0.001872439422961921 0 0)
(0.001842500246299075 0 0)
(0.001787023302626683 0 0)
(0.001706661610031282 0 0)
(0.001607218415521996 0 0)
(0.001498398535306522 0 0)
(0.001387538223576701 0 0)
(0.001276497288685573 0 0)
(0.001165539384042814 0 0)
(0.001054694933113464 0 0)
(0.0009442248857702434 0 0)
(0.0008344376401889425 0 0)
(0.0007258832329060139 0 0)
(0.0006192213724658316 0 0)
(0.0005153956856441357 0 0)
(0.0004155022271591891 0 0)
(0.0003209568068144682 0 0)
(0.0002333548449333058 0 0)
(0.0001546320310236732 0 0)
(8.691704206541628e-05 0 0)
(3.268116007214161e-05 0 0)
(-5.42198836617272e-06 0 0)
(-2.442894564583094e-05 0 0)
(-2.130373097265319e-05 0 0)
(6.916519361733877e-06 0 0)
(6.210539906878087e-05 0 0)
(0.0001431918873893396 0 0)
(0.0002434733803440536 0 0)
(0.0003524675992067763 0 0)
(0.0004631759462011399 0 0)
(0.0005739821086995321 0 0)
(0.0006847098446698997 0 0)
(0.0007953181171866218 0 0)
(0.0009054878198848196 0 0)
(0.001014949934900694 0 0)
(0.001123073819363304 0 0)
(0.001229248501997111 0 0)
(0.001332464362268892 0 0)
(0.001431704322580325 0 0)
(0.001525532104981352 0 0)
(0.001612493062787268 0 0)
(0.001690714683650552 0 0)
(0.001758316366888518 0 0)
(0.001813012702881061 0 0)
(0.001852525733558337 0 0)
(0.001874198032794518 0 0)
(0.001875440108444304 0 0)
(0.001853479109786125 0 0)
(0.001806269991092572 0 0)
(0.001733461301256926 0 0)
(0.001639237811624825 0 0)
(0.00153266805700496 0 0)
(0.001422559051941268 0 0)
(0.001312044573631355 0 0)
(0.001201595974441519 0 0)
(0.001091218434062325 0 0)
(0.0009811331801136487 0 0)
(0.0008716036142321415 0 0)
(0.0007631143318426524 0 0)
(0.0006562607162120432 0 0)
(0.0005518997266743701 0 0)
(0.0004510439616271339 0 0)
(0.0003550058164475551 0 0)
(0.0002652868581083022 0 0)
(0.0001837174732061053 0 0)
(0.0001123403346489939 0 0)
(5.35393989557782e-05 0 0)
(9.912650221228911e-06 0 0)
(-1.561604567741855e-05 0 0)
(-1.998451889704471e-05 0 0)
(-8.582373010790172e-08 0 0)
(4.645330379941975e-05 0 0)
(0.0001197569496217127 0 0)
(0.0002148945222679446 0 0)
(0.000321813796033555 0 0)
(0.0004318110737991213 0 0)
(0.0005420759480969509 0 0)
(0.000652288622975452 0 0)
(0.0007624212305532357 0 0)
(0.0008722056705963412 0 0)
(0.0009814131791413023 0 0)
(0.001089479064855292 0 0)
(0.001195851894532712 0 0)
(0.001299604778804681 0 0)
(0.001399794850456724 0 0)
(0.001495079334825474 0 0)
(0.001584083713320327 0 0)
(0.001665027840417464 0 0)
(0.001736100793948956 0 0)
(0.001795090298306808 0 0)
(0.001839762238599852 0 0)
(0.001867499449372726 0 0)
(0.001875704011525765 0 0)
(0.001861531500633921 0 0)
(0.001822635687508946 0 0)
(0.001757858512535459 0 0)
(0.001669811916224097 0 0)
(0.001566339954269929 0 0)
(0.001457232403919559 0 0)
(0.001347254000434126 0 0)
(0.00123731250777755 0 0)
(0.001127409135391634 0 0)
(0.001017729444336671 0 0)
(0.0009084952358804078 0 0)
(0.0008001305863920628 0 0)
(0.0006931716553375935 0 0)
(0.0005883950904809349 0 0)
(0.0004867354498648474 0 0)
(0.000389407765351316 0 0)
(0.0002978226417237392 0 0)
(0.0002137062308213495 0 0)
(0.000139009805559662 0 0)
(7.60206030073906e-05 0 0)
(2.726325989212534e-05 0 0)
(-4.402857162818777e-06 0 0)
(-1.593011588831399e-05 0 0)
(-4.138002742689423e-06 0 0)
(3.370330702282727e-05 0 0)
(9.868745130380754e-05 0 0)
(0.0001876498239867994 0 0)
(0.0002916645089205781 0 0)
(0.000400738797488534 0 0)
(0.0005104592502399431 0 0)
(0.0006201563561091357 0 0)
(0.0007298029564811075 0 0)
(0.0008391789412408843 0 0)
(0.0009480922219513176 0 0)
(0.001056040066187778 0 0)
(0.00116252661203576 0 0)
(0.001266702624249218 0 0)
(0.001367694836747497 0 0)
(0.001464249621639631 0 0)
(0.001555069934334467 0 0)
(0.001638467389889502 0 0)
(0.001712703804736415 0 0)
(0.001775647592140737 0 0)
(0.001825121248395681 0 0)
(0.001858565597574139 0 0)
(0.001873401149524922 0 0)
(0.001866759499504576 0 0)
(0.001836093745872319 0 0)
(0.001779633651521022 0 0)
(0.001698591028740539 0 0)
(0.001599202230437805 0 0)
(0.001491524740555354 0 0)
(0.001382124524706358 0 0)
(0.001272687349278743 0 0)
(0.001163263690333723 0 0)
(0.001054007916706748 0 0)
(0.0009451029345805489 0 0)
(0.0008369166154719266 0 0)
(0.0007299306000576964 0 0)
(0.0006248460850225509 0 0)
(0.0005225248831874818 0 0)
(0.0004240894051653875 0 0)
(0.0003308631977751512 0 0)
(0.0002444694582136972 0 0)
(0.0001667663101891763 0 0)
(9.993833180784419e-05 0 0)
(4.642597905343529e-05 0 0)
(9.006066606797195e-06 0 0)
(-9.317676842735231e-06 0 0)
(-5.34612093145761e-06 0 0)
(2.38883642796263e-05 0 0)
(8.022209977908623e-05 0 0)
(0.0001620945967547984 0 0)
(0.0002622062551508017 0 0)
(0.0003699794980055687 0 0)
(0.0004791273980072044 0 0)
(0.0005883100894675913 0 0)
(0.0006974623278052217 0 0)
(0.0008064094882352133 0 0)
(0.0009149927021481102 0 0)
(0.001022767534218399 0 0)
(0.001129290485669937 0 0)
(0.001233785301011144 0 0)
(0.001335444899059653 0 0)
(0.001433100457753216 0 0)
(0.001525530427126068 0 0)
(0.001611136084655396 0 0)
(0.001688254159112869 0 0)
(0.001754837501545551 0 0)
(0.00180877433317664 0 0)
(0.001847574591587295 0 0)
(0.001868697378681586 0 0)
(0.001869285248013632 0 0)
(0.001846670485738465 0 0)
(0.001798641456695385 0 0)
(0.001725247976205757 0 0)
(0.001630974778245991 0 0)
(0.001525366750576483 0 0)
(0.001416654702207582 0 0)
(0.00130772051853665 0 0)
(0.001198780147996748 0 0)
(0.001089963914117659 0 0)
(0.0009814178248947663 0 0)
(0.0008734580242147703 0 0)
(0.0007665152997502174 0 0)
(0.0006612199745275675 0 0)
(0.0005583655142318667 0 0)
(0.0004589862968828686 0 0)
(0.0003643225289457957 0 0)
(0.0002758965164791011 0 0)
(0.0001954732922826647 0 0)
(0.0001251317080374347 0 0)
(6.722154244976932e-05 0 0)
(2.442436227937568e-05 0 0)
(-3.206426610458695e-07 0 0)
(-3.837242327219348e-06 0 0)
(1.698643722218782e-05 0 0)
(6.452539851407609e-05 0 0)
(0.0001385743262114957 0 0)
(0.0002337021878655836 0 0)
(0.0003395856455964765 0 0)
(0.0004480774152426532 0 0)
(0.0005567472056200604 0 0)
(0.000665398756296229 0 0)
(0.0007739002266727851 0 0)
(0.00088212129116189 0 0)
(0.0009896736795741753 0 0)
(0.001096162221005622 0 0)
(0.001200880651156199 0 0)
(0.001303083997385715 0 0)
(0.001401685565970987 0 0)
(0.0014955360536652 0 0)
(0.001583125262081408 0 0)
(0.001662864565622424 0 0)
(0.001732794392969338 0 0)
(0.001790873244092988 0 0)
(0.001834688669341541 0 0)
(0.001861751519327055 0 0)
(0.001869242040915455 0 0)
(0.001854430874934498 0 0)
(0.001814806349782576 0 0)
(0.001749506386187874 0 0)
(0.001661327824727244 0 0)
(0.001558631460514024 0 0)
(0.00145083680781232 0 0)
(0.001342412337144222 0 0)
(0.001233957549198296 0 0)
(0.001125593554633132 0 0)
(0.001017431975025508 0 0)
(0.0009097413762574467 0 0)
(0.000802905133323017 0 0)
(0.0006974866750731833 0 0)
(0.0005942151321468671 0 0)
(0.0004940411734578718 0 0)
(0.0003981250614734351 0 0)
(0.0003078910405365872 0 0)
(0.000225011840044745 0 0)
(0.0001514601483027408 0 0)
(8.949065980791677e-05 0 0)
(4.168205813109695e-05 0 0)
(1.089372896432726e-05 0 0)
(2.497746465227007e-07 0 0)
(1.293357781002769e-05 0 0)
(5.169015070267404e-05 0 0)
(0.0001173917630919238 0 0)
(0.0002064786753338515 0 0)
(0.0003096625330260618 0 0)
(0.0004173129440483071 0 0)
(0.0005254649826631737 0 0)
(0.0006336122275765243 0 0)
(0.0007416539785093748 0 0)
(0.0008494852723895085 0 0)
(0.0009567705684261241 0 0)
(0.001063160775831897 0 0)
(0.00116801544757509 0 0)
(0.001270649533884587 0 0)
(0.001370054547358946 0 0)
(0.001465151713440874 0 0)
(0.001554516587170461 0 0)
(0.001636635692479191 0 0)
(0.001709637384445221 0 0)
(0.001771554206318305 0 0)
(0.00182005569407783 0 0)
(0.00185271484089713 0 0)
(0.001866767544233678 0 0)
(0.001859467130828966 0 0)
(0.001828111321620066 0 0)
(0.00177115777596762 0 0)
(0.001689915587836013 0 0)
(0.001591120682890966 0 0)
(0.001484644429459819 0 0)
(0.001376764750702131 0 0)
(0.001268795659243935 0 0)
(0.001160893866802549 0 0)
(0.001053138435408894 0 0)
(0.0009457546009425703 0 0)
(0.0008390812969490062 0 0)
(0.0007336187367671872 0 0)
(0.0006300354778815467 0 0)
(0.0005292023682921186 0 0)
(0.0004322032776127908 0 0)
(0.0003403671636747279 0 0)
(0.0002552765175246865 0 0)
(0.0001787981727955639 0 0)
(0.0001130899771891267 0 0)
(6.062238958891612e-05 0 0)
(2.416542201347214e-05 0 0)
(6.769320022826e-06 0 0)
(1.163555727663061e-05 0 0)
(4.174467052586287e-05 0 0)
(9.878430015884339e-05 0 0)
(0.0001808924399531482 0 0)
(0.0002803876145247994 0 0)
(0.0003868507140275424 0 0)
(0.0004944607058561345 0 0)
(0.0006021023249196769 0 0)
(0.0007096737570915484 0 0)
(0.0008170912917533562 0 0)
(0.0009240703064445106 0 0)
(0.001030304116657581 0 0)
(0.001135215634511161 0 0)
(0.001238176394473742 0 0)
(0.001338253824086685 0 0)
(0.00143443659940617 0 0)
(0.001525384628493519 0 0)
(0.001609658197946524 0 0)
(0.001685474398279489 0 0)
(0.001750940661362378 0 0)
(0.00180381242647004 0 0)
(0.001841730864596034 0 0)
(0.001862001207586268 0 0)
(0.001861889978110913 0 0)
(0.001838588040617182 0 0)
(0.001790067603900883 0 0)
(0.001716415947172364 0 0)
(0.001622566147634517 0 0)
(0.001518019459225312 0 0)
(0.001410780305844265 0 0)
(0.001303297165709258 0 0)
(0.001195864296265142 0 0)
(0.001088532572571628 0 0)
(0.0009814876632034007 0 0)
(0.0008750272995549998 0 0)
(0.0007695913640080752 0 0)
(0.0006657919133815796 0 0)
(0.0005644230678313215 0 0)
(0.0004664961908742692 0 0)
(0.0003732474949741541 0 0)
(0.0002861721748879194 0 0)
(0.0002070321059766414 0 0)
(0.0001378881678606825 0 0)
(8.109939995593785e-05 0 0)
(3.934050733587572e-05 0 0)
(1.557246173456777e-05 0 0)
(1.297576703233778e-05 0 0)
(3.466401739016667e-05 0 0)
(8.291367858312812e-05 0 0)
(0.0001572917000241794 0 0)
(0.0002520144271337488 0 0)
(0.0003567349657621608 0 0)
(0.0004637301066632673 0 0)
(0.0005708651479323937 0 0)
(0.0006779577354122734 0 0)
(0.0007849405348608111 0 0)
(0.0008915774950702502 0 0)
(0.0009976009778569124 0 0)
(0.001102493810835185 0 0)
(0.001205680962218339 0 0)
(0.001306301738481924 0 0)
(0.001403408576745551 0 0)
(0.001495741472778773 0 0)
(0.001581930791356943 0 0)
(0.001660277418451996 0 0)
(0.001728958860486321 0 0)
(0.001785810793080598 0 0)
(0.001828537860606061 0 0)
(0.001854511179096303 0 0)
(0.001861020606409303 0 0)
(0.001845205914609346 0 0)
(0.001804732284587582 0 0)
(0.001738832299842623 0 0)
(0.001650890842349735 0 0)
(0.001549489817420449 0 0)
(0.001443788318694333 0 0)
(0.001337556880382537 0 0)
(0.001231360142217728 0 0)
(0.001125234051940268 0 0)
(0.001019344722402352 0 0)
(0.0009139564151428103 0 0)
(0.0008094786155368652 0 0)
(0.0007064795615863925 0 0)
(0.0006057045985990359 0 0)
(0.0005080899427007648 0 0)
(0.0004147723014435912 0 0)
(0.0003270921240706299 0 0)
(0.0002465872274246746 0 0)
(0.0001749699506353656 0 0)
(0.0001140699850920648 0 0)
(6.569191999713677e-05 0 0)
(3.125150463934793e-05 0 0)
(1.092644448590236e-05 0 0)
(2.303334215035089e-06 0 0)
(2.167392195880337e-07 0 0)
(6.19762642173023e-09 0 0)
(3.761108205237232e-11 0 0)
(2.090726566786725e-12 0 0)
(2.373621899019625e-12 0 0)
(2.453204252639189e-12 0 0)
(2.474220236035697e-12 0 0)
(2.489540179923917e-12 0 0)
(2.526679329621496e-12 0 0)
(2.354029951216139e-12 0 0)
(2.462715628414246e-12 0 0)
(2.590173208191776e-12 0 0)
(2.728447699191111e-12 0 0)
(2.868330145090652e-12 0 0)
(2.800803203237788e-12 0 0)
(2.835426260746447e-12 0 0)
(2.868943638885023e-12 0 0)
(3.27039460057312e-12 0 0)
(3.456912050148403e-12 0 0)
(3.252893465742497e-12 0 0)
(3.208296312572394e-12 0 0)
(2.957980331865892e-12 0 0)
(2.54923931823127e-12 0 0)
(2.331417000283993e-12 0 0)
(2.349931511044905e-12 0 0)
)
;

boundaryField
{
    inlet
    {
        type            calculated;
        value           uniform (-4.024916078998372e-05 0 0);
    }
    outlet
    {
        type            calculated;
        value           uniform (2.349931511044905e-12 0 0);
    }
    frontAndBack
    {
        type            empty;
    }
}


// ************************************************************************* //
