/*--------------------------------*- C++ -*----------------------------------*\
| =========                 |                                                 |
| \\      /  F ield         | OpenFOAM: The Open Source CFD Toolbox           |
|  \\    /   O peration     | Version:  v2012                                 |
|   \\  /    A nd           | Website:  www.openfoam.com                      |
|    \\/     M anipulation  |                                                 |
\*---------------------------------------------------------------------------*/
FoamFile
{
    version     2.0;
    format      ascii;
    class       volScalarField;
    location    "0.008";
    object      p;
}
// * * * * * * * * * * * * * * * * * * * * * * * * * * * * * * * * * * * * * //

dimensions      [1 -1 -2 0 0 0 0];


internalField   nonuniform List<scalar> 
1000
(
101321.3143188273
101322.0670738611
101312.7471716212
101300.3983002909
101290.1640738185
101283.451350733
101282.2518288163
101282.7745648634
101284.0658157118
101282.2874771675
101274.6308176528
101267.7925378302
101266.038903135
101272.8155296171
101284.8585976593
101294.2312108655
101297.0777673459
101292.8847796149
101286.6220941219
101285.6438451924
101293.2000145522
101310.1064072935
101329.4895170045
101342.0515337061
101346.0456306407
101345.3028587925
101344.9251253991
101347.6435187909
101353.4967080699
101361.2455221118
101366.9998928266
101367.8324189855
101372.9996582295
101379.4530411664
101383.3802788072
101383.2568816307
101376.2435787928
101367.3355663238
101359.5154837718
101359.0787645261
101361.2681772793
101363.4357050209
101360.731955336
101353.1472709313
101338.9178510436
101323.6728997243
101311.4421229557
101306.2433870452
101308.644467955
101311.8076953606
101307.7263046624
101298.6921768881
101285.1861361638
101273.6988895125
101268.0336222055
101269.6012317303
101275.0915959474
101278.9587874065
101278.9629722695
101275.5464210845
101273.0006475023
101276.0300344907
101281.3355997158
101289.9296779298
101295.2789430564
101296.9493002301
101295.7469353532
101300.3500830375
101316.4374509138
101337.1642909583
101346.8925455387
101349.8480307852
101348.4586909231
101344.9996934388
101345.3087118438
101353.2669927189
101368.4296434755
101380.9111659044
101384.5097667483
101380.6025904252
101374.0194850052
101369.8966241376
101371.0254528842
101376.6236156803
101378.8644552321
101374.5498000667
101366.6234683856
101357.5401640608
101351.1486427502
101342.8286860394
101337.2819991211
101334.1376129847
101330.134494582
101322.9290082347
101314.2338185306
101305.6987812816
101293.5167963588
101282.9013867692
101280.6297949039
101281.4430904551
101283.2958246748
101281.2261734706
101274.0599279536
101267.5870169728
101264.2246494393
101267.4582763171
101276.0561954467
101284.2834423104
101290.184833568
101290.178284802
101288.3252280993
101286.9804135125
101290.6225430414
101297.270102119
101308.222535855
101320.3041791158
101334.4308713053
101346.8693130232
101352.4710955724
101355.7263447163
101358.9901715494
101361.7850036428
101364.9420546261
101370.5644022424
101375.9743372856
101378.949316336
101383.8379809669
101385.3681952003
101382.1298286815
101376.1033731963
101367.9990709644
101362.736043032
101361.1525049278
101364.066494332
101366.9070568966
101364.7894735443
101354.6526500459
101335.5338711359
101315.9088820731
101305.7368660874
101303.385927041
101306.3435071541
101308.8877291269
101303.491941904
101290.035023425
101277.0376988329
101268.9843021571
101266.3051398328
101267.8304521761
101270.8626715675
101274.5441474957
101276.872677652
101279.2373347259
101278.6610852985
101278.3277667558
101279.0631465036
101281.6099049001
101285.7768619368
101291.1883515264
101298.1526740291
101307.5933995635
101323.6093429828
101341.938728957
101348.3012019218
101349.1131798072
101350.438966443
101352.9400130877
101356.6854574611
101361.0362721086
101369.6472212242
101378.3860975456
101381.7425412961
101381.4195319337
101382.2797763055
101380.5941624965
101376.7884864225
101373.2136635901
101370.8108717139
101369.165114695
101367.9877266734
101368.0938757146
101365.171842461
101353.732697985
101332.4829029309
101315.8765298524
101311.7312068027
101310.8114940914
101311.1436902738
101308.864502811
101300.960856926
101284.9209872731
101272.1944215099
101270.5149151054
101270.9563746426
101271.3613213049
101273.0211513946
101274.3889945473
101274.7668969723
101274.9652090037
101274.7550664697
101274.6359818085
101275.932444133
101278.8742310113
101283.9670549976
101290.9559697542
101297.8590442369
101303.459806412
101309.3173165353
101318.8078621521
101336.5805164073
101357.9322526423
101366.41573258
101366.9678363819
101366.8906122465
101367.1773957009
101368.155263328
101368.9907630571
101372.9127668233
101378.7981382377
101381.4177287529
101382.9490585108
101382.5864205704
101380.5873005674
101377.1811191935
101372.0921490757
101366.3482677217
101362.9169389242
101361.8608895995
101361.0686802167
101358.6224011621
101351.2907309173
101332.816022659
101302.5968636144
101283.794380586
101281.981440392
101282.532185518
101282.9961520734
101282.2592782159
101280.9200215271
101279.7957578994
101276.8466120937
101271.7536731676
101268.0643120725
101267.9076737094
101268.7023371941
101270.1888541001
101270.6386215965
101272.5080750887
101278.5525878065
101287.12811439
101292.6208879628
101294.6545201274
101295.7805281564
101297.4872254727
101303.7804629879
101323.544478186
101356.0881941905
101373.5482583066
101375.6617270649
101375.7594477058
101375.0054270311
101374.1444288181
101373.6446559444
101373.6665221505
101373.8525629364
101374.6120351053
101376.607035444
101378.6360735826
101379.1494866966
101379.0886595974
101379.015644752
101378.6858359516
101377.2773151914
101374.2480542885
101365.9175641396
101346.4826080694
101321.1600868289
101309.2229010706
101307.0838800586
101306.1184659839
101303.8096664405
101298.0400562848
101285.7593025784
101276.1077693571
101274.4184798823
101274.4139047916
101274.6108128722
101274.3800817405
101273.9747447391
101273.7781019844
101273.2020921898
101272.220366834
101271.8146993956
101272.1138010165
101272.7132092698
101272.9178276809
101274.0309377398
101279.3100898962
101290.6989494242
101317.4200433143
101344.7666395164
101352.6007360993
101353.0913492889
101352.9695330339
101354.359898119
101357.2370750849
101364.26333665
101371.7704739203
101374.1607241271
101374.5968079384
101374.4352974787
101374.3565933067
101375.4693037531
101377.371373802
101379.0938548741
101379.6281527187
101379.637459288
101379.2222859351
101375.1712178365
101368.088965844
101351.7381367125
101334.2944151426
101328.213294291
101327.3689347086
101327.3523028003
101324.8454026542
101317.6056433732
101298.5074047136
101279.6386271094
101275.1647183192
101274.995779562
101274.8981689095
101274.5429759827
101274.1061448689
101272.7382639825
101269.5066992786
101267.001650411
101266.5110563785
101266.7068821242
101267.0217384576
101267.0223754531
101267.1158943496
101267.7065502956
101268.882660631
101271.0318735476
101278.0385900873
101297.1934288421
101337.2734386891
101374.5062129698
101382.6643277807
101382.9891983447
101383.1241086985
101382.9288638859
101382.5860571928
101382.3631654275
101381.5544060215
101379.3350711618
101376.3744086461
101375.1165345182
101375.0680060079
101375.1254866444
101375.0264688592
101375.0707743164
101375.3059125423
101375.1095492502
101374.5412817126
101374.0611431341
101373.9004501491
101370.3225917758
101361.321063205
101335.6592016234
101293.5131882568
101270.9679733757
101268.7956103231
101268.8943484709
101269.1832422155
101269.2960490279
101270.0677381216
101272.2909683893
101275.2445103921
101276.4542923991
101276.5259763064
101276.559651224
101276.5578676217
101276.2176986267
101275.8468795048
101275.974629612
101276.497395779
101276.46687913
101276.59457598
101279.4173779441
101284.8900301998
101304.8708400843
101341.005693163
101363.8786445376
101366.7079707159
101366.7801936528
101366.8521904119
101366.7856890727
101366.7121111905
101366.7061225203
101367.0601238766
101367.8498646949
101369.8195768008
101374.9359313178
101379.9729618586
101381.1357641654
101381.0267022336
101380.7654300994
101380.5669257719
101379.2606069858
101376.3766144456
101370.6038053874
101361.1705773843
101351.5511376527
101344.8925162202
101339.374269298
101330.2056298273
101309.6761494408
101280.8095241692
101267.5332541869
101266.4754753215
101266.3978963089
101266.4611358726
101267.1669045354
101268.2083283569
101268.7863839864
101269.0227588553
101269.7609111665
101271.3327683563
101273.1259533741
101278.9693692372
101287.0995458952
101291.5351438846
101292.3499513436
101292.5029572638
101293.9347931213
101296.6834298519
101307.0752341343
101330.1489918303
101349.4001395156
101353.1668887135
101353.2800718895
101353.2883046645
101353.9843679253
101355.1530970052
101359.6314243564
101368.7494853811
101374.8704716746
101375.7003988938
101375.5227558445
101375.3010780998
101375.4891830072
101375.6887370726
101375.4693564293
101375.4965803155
101376.0195455873
101376.5805380674
101375.557823618
101373.948782731
101373.2134868977
101366.2885713725
101347.0465189512
101307.7392410278
101277.5075116911
101272.6558426058
101272.5079085938
101272.5626020747
101272.8175503091
101273.1152818221
101273.9319120208
101275.7139661893
101277.1664327459
101277.4689581077
101277.3671190218
101277.2465596195
101277.2362109937
101277.1570050865
101277.0473547662
101277.0828212086
101277.3658489374
101277.7569204028
101278.0694969969
101280.0062983826
101285.4337666577
101302.0029556775
101336.8394664711
101366.4587457785
101372.0183269622
101372.1505256103
101372.1833671272
101372.248618907
101372.0573641231
101371.8083633199
101371.9319049039
101372.3514932451
101372.3660969475
101372.5434561499
101374.2958789826
101376.9011207864
101378.9380782997
101379.4642515975
101379.7358347432
101380.203359581
101378.9096584209
101377.0361731845
101376.5423835646
101368.7361946259
101346.2718712293
101304.3935755259
101278.1548410161
101275.0765109813
101275.0396447721
101275.0317481671
101275.1729677047
101275.3669518424
101275.7271769619
101275.9211854979
101275.9911971622
101275.8835968587
101275.7325798639
101275.7131326606
101275.4907469176
101275.1058541884
101274.9107063104
101274.9459429188
101275.1113641377
101275.0840278176
101275.267889748
101276.8879471899
101279.8021160096
101291.4435416067
101320.9142697046
101360.2038611247
101375.1165141879
101376.0694591716
101376.1379740545
101376.0217915834
101375.8824051218
101375.8589906636
101375.6946147494
101375.1495695524
101374.5938555183
101374.4123089017
101374.4338766913
101374.3993578305
101374.2956388633
101374.3712969498
101374.6051782375
101374.20235419
101373.5261394331
101373.5691824563
101373.3472447988
101370.8962233993
101366.0558257053
101348.1647143462
101309.6011680042
101276.4120645792
101270.1156410491
101269.9963549449
101270.0024324359
101269.8587326597
101270.107815657
101270.4889075204
101270.5906892109
101270.5421336084
101271.046138327
101271.887173937
101272.273241633
101272.2903180286
101272.6413883879
101273.382286981
101273.6625735694
101272.7769766677
101274.0268750735
101276.8893283299
101279.5019735177
101294.9683868958
101330.2956762384
101364.8870919942
101372.7985686334
101373.1162062757
101373.2180105554
101373.0448891763
101372.8414869017
101372.8159194773
101372.9700434306
101373.0356626014
101372.8793591235
101373.2759481043
101374.1912516185
101374.9639411003
101377.1779708594
101379.3618367382
101379.9383012399
101379.6561896278
101379.0243965864
101378.8705847078
101378.4205956255
101375.1720401891
101368.342562319
101346.0924622924
101303.8943715609
101274.6015903112
101270.5145165509
101270.4430590598
101270.409381798
101270.527545277
101270.9731023875
101271.5455184146
101272.091551296
101272.3104110667
101272.4171953821
101272.4344332041
101272.291961275
101272.22226033
101272.5704650975
101272.9478220233
101272.7716340574
101272.7469932232
101273.5783379528
101274.9045018208
101275.6862202432
101282.2162507837
101299.8949574858
101338.4769231849
101372.1259050379
101378.7574220013
101378.9362590195
101378.8360672033
101378.7508567167
101378.6591429797
101378.1827299864
101377.4887113306
101377.1284241828
101377.143069688
101377.1515295653
101376.934820234
101376.8179202413
101377.0809444939
101376.866507613
101376.2718716834
101375.8566197037
101376.2192192483
101375.4714856051
101373.0991794769
101370.2313280424
101357.2711998062
101325.0569307078
101284.5762315505
101270.7641663474
101269.9992694998
101269.9107183452
101270.0443369289
101270.2625338938
101270.4268454657
101270.7585596888
101271.6234643348
101272.3620957668
101272.5387134805
101272.3828464251
101272.2698288776
101272.5156248945
101272.6904107219
101272.3894390066
101272.6430336988
101273.4415118518
101274.1266833621
101274.5521177121
101279.4346332764
101291.3887298289
101323.6420422354
101364.6341669345
101378.9650906789
101379.7280401214
101379.6419832265
101379.6135319721
101379.6020523449
101379.3709702989
101379.0729939095
101378.9655894854
101378.8812344185
101378.2310349088
101377.2014754214
101376.6233416267
101376.6628598868
101376.7798408746
101376.4632058102
101376.1960016393
101376.4345070563
101375.8534970766
101373.9655471904
101371.4062817487
101360.6444001388
101332.8005853747
101291.068926263
101271.9701484458
101270.4161508052
101270.3399278214
101270.4728560498
101270.6219442744
101270.6315247889
101270.6908624684
101270.9638419973
101271.453396996
101272.2707277063
101273.491370543
101274.2072033896
101274.3847402591
101274.3618862154
101274.2032423731
101274.4094009465
101274.7527897012
101274.9338695265
101275.4098337232
101278.442680465
101285.8805756172
101308.6633624145
101349.8852969653
101376.9712863105
101380.5381926663
101380.6413417255
101380.7627987604
101380.540797864
101380.1193375291
101379.8281562004
101379.7294332228
101379.1536834112
101377.664480407
101375.5866534709
101373.3555848998
101372.4179395013
101372.069476455
101372.2956021726
101372.7841369912
101372.6836526813
101371.7679110297
101370.9415792576
101370.4824561202
101365.0592856785
101351.706547674
101317.9966622098
101280.2645306122
101269.4761538536
101269.0146578791
101269.1853949655
101269.3212572429
101269.3535463651
101269.8059526575
101270.9962719625
101273.0120126094
101276.2233595859
101278.0045059105
101278.3622686263
101278.0799645335
101277.6585106158
101277.6342589163
101277.9895609281
101278.1030122923
101277.7208585558
101278.6865167521
101280.8618937486
101282.6314722156
101292.9966111814
101319.9655279467
101360.6497952466
101379.4825856543
101381.0854475658
101381.2419676898
101381.0188761227
101380.6877317704
101380.4789556687
101379.96048734
101377.8496117262
101374.633421224
101372.6565113362
101372.3811254232
101372.3184972755
101372.1980494181
101372.5175681658
101373.0108342188
101372.505836159
101371.6607501924
101371.5136294735
101371.0006298087
101366.9493987928
101358.6409821442
101332.9525063683
101291.6992247336
101270.6645781961
101268.7737101302
101268.8494421823
101268.9065426596
101268.9918849185
101269.5108581839
101270.5885806125
101272.5129858776
101275.793279862
101277.7469318818
101278.1115940571
101277.7796098158
101277.3505413752
101277.4021275652
101277.5395685346
101277.4510886762
101277.1712618031
101278.1327064255
101279.9963061641
101281.2347931052
101289.9880087672
101313.1605936001
101353.6680714328
101377.6998340592
101380.541461308
101380.7121618598
101380.4684765636
101380.1422089736
101380.0434196083
101379.5372245746
101377.6887808857
101374.8755727596
101372.8170580022
101372.3750898573
101372.2138591549
101372.2468308112
101372.6476981076
101373.057283649
101372.5388528093
101371.8484585372
101372.0365889715
101371.3993327054
101367.8949144558
101361.8415477556
101340.592779151
101300.6327060737
101273.3823252191
101269.6565607888
101269.5951136628
101269.5310411778
101269.7206234427
101270.3313125301
101271.2021670333
101273.0007891402
101276.0679404276
101277.8869065217
101278.2035693569
101277.8477152021
101277.4868338697
101277.6173607145
101277.5739174497
101277.2582158682
101277.2367743637
101278.1992062401
101279.5863761374
101280.3350076632
101287.1747788246
101305.2305467379
101343.0937770561
101374.1198334004
101379.8229731607
101380.0466988221
101379.8196563949
101379.5007951992
101379.3754887218
101378.5095226267
101376.3201660686
101373.7013441957
101372.5642854246
101372.4070183657
101372.2787938497
101372.4838052391
101372.962886728
101373.3400727775
101372.7698646835
101371.9389261831
101371.5702706277
101370.9331669706
101368.5851423722
101365.1423491737
101348.8882066322
101312.4387753346
101278.7713735224
101271.0504974399
101267.880068735
101267.0066577683
101268.0916319073
101271.9990995857
101278.1955870148
101282.8359721617
101285.0400539326
101284.5129992592
101276.4455650981
101263.9365823543
101257.5069824243
101255.3839517493
101256.4109787059
101257.4059576967
101256.7876092373
101255.2352457247
101257.2922441159
101261.854793342
101268.0881180717
101282.9349475912
101312.7914428227
101346.716110183
101354.6045377363
101352.9586407901
101350.2532473541
101349.7944163137
101356.8896008908
101374.6931298541
101387.8719300657
101391.3443776956
101390.8184892614
101389.8474248763
101390.1305209341
101392.0346447339
101393.7353021924
101393.0344550274
101390.7674411835
101389.0904958226
101387.9699460849
101385.52895813
101382.0409771085
101378.7186908078
101370.1135520541
101348.8459630399
101318.7201704996
101305.1065177807
101302.6716661512
101304.8762259021
101304.4594564495
101296.4968700677
101277.2553082084
101264.202645175
101260.7879990182
101260.8705710954
101261.1980899473
101261.4391238278
101259.7717524461
101258.7345519793
101259.3093927869
101260.2529398961
101261.5068961845
101261.912002488
101263.012673287
101264.5538501408
101266.7985934542
101275.1279628709
101296.5308512723
101334.2708730515
101356.2826663736
101358.9687605879
101357.6048858031
101356.4304058014
101358.2158819439
101368.9997170274
101383.4606772838
101389.9798323076
101390.7502797055
101389.6286751714
101389.9969070338
101390.6161324767
101392.245191535
101394.0753917256
101394.7420225233
101394.5533248933
101392.9456759127
101391.4060656616
101388.8442367441
101385.1138829873
101378.2645565935
101359.7495783815
101323.8709942585
101299.3956882613
101295.1300040207
101295.8294084312
101296.9826417875
101295.4524628618
101287.062214892
101274.3842161537
101267.8281761027
101264.9234315324
101263.2263501063
101261.6726924984
101260.8064222957
101260.0313692213
101259.985877187
101260.2909804429
101260.9387749235
101261.7278515748
101262.1954930459
101262.3873602268
101264.9063346987
101268.8919456471
101283.8974208213
101318.5035792667
101355.267712798
101366.6688576255
101366.3756823377
)
;

boundaryField
{
    inlet
    {
        type            uniformFixedValue;
        uniformValue    sine;
        uniformValueCoeffs
        {
            frequency       constant 3000;
            scale           constant 50;
            level           constant 101325;
        }
        value           uniform 101325;
    }
    outlet
    {
        type            waveTransmissive;
        gamma           1.4;
        fieldInf        101325;
        lInf            2.25;
        value           uniform 101366.0012686762;
    }
    frontAndBack
    {
        type            empty;
    }
}


// ************************************************************************* //
