/*--------------------------------*- C++ -*----------------------------------*\
| =========                 |                                                 |
| \\      /  F ield         | OpenFOAM: The Open Source CFD Toolbox           |
|  \\    /   O peration     | Version:  v2012                                 |
|   \\  /    A nd           | Website:  www.openfoam.com                      |
|    \\/     M anipulation  |                                                 |
\*---------------------------------------------------------------------------*/
FoamFile
{
    version     2.0;
    format      ascii;
    class       volScalarField;
    location    "0.008";
    object      rho;
}
// * * * * * * * * * * * * * * * * * * * * * * * * * * * * * * * * * * * * * //

dimensions      [1 -3 0 0 0 0 0];


internalField   nonuniform List<scalar> 
1000
(
1.176380149007274
1.176388426664956
1.176315831086869
1.176216630161433
1.176129546024231
1.176070481282095
1.176059120102599
1.176063114639269
1.176073529327114
1.176058684918337
1.175995074964122
1.175938131577692
1.175923398610272
1.175979459185366
1.176079169578122
1.176156797282867
1.176180352146869
1.176145542287109
1.176093567222422
1.176085435600182
1.176148087886981
1.176288278430457
1.176449006013181
1.176553171855445
1.176586295416347
1.176580141417972
1.176577015038984
1.176599558998571
1.176648091075716
1.17671233845062
1.176760048416654
1.176766951064143
1.176809791456779
1.176863293819808
1.176895851816443
1.176894828047685
1.176836683189039
1.176762828360798
1.176697991703161
1.17669437053178
1.176712523125069
1.176730494261534
1.176708077439957
1.176645191713642
1.176527210391159
1.176400803096699
1.176299384239305
1.176256274919955
1.176276185316669
1.176302415422918
1.176268571294868
1.17619365664108
1.176081655689547
1.175986392290248
1.175939409269643
1.175952409750121
1.175997942415876
1.176030013377826
1.17603004824215
1.176001715035325
1.175980603030274
1.176005726054991
1.17604972495733
1.176120994111368
1.176165353740413
1.176179205038382
1.176169234108361
1.176207405275551
1.176340805661273
1.176512669025384
1.176593330855926
1.176617836002623
1.176606316745953
1.176577637148868
1.176580199523322
1.176646184292404
1.176771898225148
1.17687537906927
1.176905213512442
1.176872820937158
1.17681824263634
1.176784060805616
1.176793419697671
1.176839832695518
1.176858410699493
1.176822639203202
1.176756923607756
1.176681613849224
1.176628620172754
1.176559635984025
1.176513645600365
1.176487573583481
1.17645438090307
1.176394634338186
1.176322534022446
1.176251759567296
1.176150740426936
1.176062709689144
1.176043872029786
1.176050617037111
1.176065981767288
1.176048818569488
1.175989389456289
1.17593570924249
1.175907824632156
1.175934642291723
1.176005946606588
1.176074175214193
1.176123114653039
1.176123060863855
1.176107694608455
1.176096543008962
1.176126746537414
1.176181872740707
1.176272695584836
1.176372878501323
1.17649001442827
1.176593148597479
1.176639595963036
1.176666587049657
1.176693648983037
1.176716821966012
1.176742997824502
1.176789612969772
1.176834466413789
1.176859131966044
1.176899663173369
1.176912350584819
1.17688550378975
1.176835541826574
1.176768352056828
1.176724718134275
1.176711590197356
1.176735751178977
1.176759303045139
1.176741747069771
1.176657703097805
1.176499182154403
1.176336455277461
1.176252108259038
1.176232614686714
1.176257141025092
1.176278239549188
1.176233496529755
1.176121904792376
1.176014120489093
1.175947333325049
1.175925114713228
1.175937764560782
1.175962911240517
1.175993441984803
1.176012752331356
1.176032361847726
1.176027581664079
1.176024815795667
1.176030912821262
1.176052031539573
1.176086585735812
1.176131459360755
1.176189209350238
1.176267493334563
1.17640029623406
1.17655227524751
1.1766050276927
1.176611758382142
1.176622748832843
1.176643483585052
1.176674535835193
1.176710606430878
1.176781996330519
1.176854445795567
1.176882271192724
1.176879591444932
1.17688672117569
1.176872744588315
1.176841191598079
1.176811552507697
1.176791630060039
1.176777983886686
1.176768221047015
1.17676909987096
1.176744872039115
1.176650027488282
1.17647383383081
1.176336134907054
1.176301760631429
1.176294133214745
1.176296886766269
1.176277986113918
1.176212445422108
1.176079431401041
1.175973889596213
1.175959960288547
1.175963620260539
1.175966977248637
1.175980741382129
1.175992084041292
1.175995217067955
1.175996860704438
1.175995116748044
1.175994128118379
1.176004878745951
1.176029273887905
1.176071507176963
1.176129463357636
1.176186706473571
1.17623314922914
1.176281720269181
1.176360415862776
1.176507781793395
1.176684815263179
1.176755151301276
1.17675972799546
1.17675908741608
1.17676146414576
1.17676957030153
1.176776496495062
1.176809012367106
1.176857805535646
1.176879522828994
1.17689221757499
1.176889210325761
1.17687263573443
1.176844395542314
1.176802203543373
1.176754581195523
1.176726131418427
1.176717374879862
1.176710805837229
1.176690522699284
1.176629733568229
1.176476549465096
1.176225968433126
1.176070047279655
1.176055012519007
1.176059578935387
1.176063425993677
1.176057314607766
1.176046207360892
1.176036883072228
1.176012425134016
1.175970188344847
1.175939591507918
1.175938292011433
1.175944881554718
1.175957209003754
1.175960938695733
1.175976441951059
1.176026568774603
1.176097683975541
1.176143233572402
1.176160097378913
1.176169434599988
1.176183587250036
1.176235773368898
1.176399658586544
1.176669494363398
1.176814256502779
1.176831778836802
1.176832588921675
1.176826337452496
1.176819199008328
1.176815055436316
1.176815236647875
1.176816778953098
1.176823075452966
1.176839615357697
1.176856437404308
1.176860693936464
1.176860189713144
1.17685958454891
1.176856850513317
1.176845173328835
1.176820058998816
1.176750992534323
1.176589853796504
1.176379887168264
1.176280903753104
1.176263166734375
1.176255161444064
1.176236016318073
1.176188172337921
1.176086332242009
1.176006293376433
1.175992284352464
1.175992246593754
1.175993879687972
1.175991966369258
1.175988605005822
1.175986974287415
1.175982197391684
1.175974055803835
1.175970691516037
1.175973171951077
1.175978142808036
1.175979839577086
1.175989070455637
1.176032850264563
1.176127295354718
1.176348874572377
1.176575625125097
1.176640580594363
1.17664464799349
1.17664363767885
1.176655164981887
1.176679019539421
1.176737274010882
1.176799514390103
1.176819331119907
1.176822946269759
1.176821606907936
1.176820954150207
1.176830179078031
1.17684594824595
1.176860228517632
1.176864657983669
1.176864734907578
1.176861292607777
1.176827706420541
1.176768988731527
1.176633422218848
1.17648878817734
1.176438365391054
1.176431364065092
1.176431226056998
1.176410439152392
1.176350407224133
1.176192038632487
1.17603556547309
1.175998463792475
1.175997062740177
1.175996253216193
1.175993307521994
1.17598968477796
1.175978340760683
1.17595154086902
1.175930765917764
1.175926697254518
1.175928321230687
1.175930932323947
1.175930937551107
1.175931713104913
1.175936611553123
1.175946365312815
1.175964189120652
1.176022296192181
1.176181141935143
1.176513484191214
1.176822188685345
1.17688982656255
1.176892520025905
1.176893638555927
1.17689201994247
1.176889177971891
1.176887330126754
1.176880625099717
1.176862225527398
1.176837679720388
1.176827251082947
1.176826848730439
1.176827325255998
1.176826504283405
1.176826871548995
1.176828820940357
1.176827192871011
1.176822481431209
1.176818500618878
1.176817168230708
1.176787504905537
1.17671287367246
1.176500101399119
1.176150618742807
1.175963657051412
1.175945641718937
1.175946460539013
1.175948856345135
1.175949791851434
1.175956191604562
1.175974629198619
1.175999123231396
1.176009156068963
1.176009750649412
1.176010030065509
1.176010015375877
1.176007194506596
1.176004119505051
1.176005179102513
1.176009514593654
1.176009261691002
1.176010320808594
1.176033730426961
1.176079114555489
1.176244806689998
1.176544432175634
1.176734079660192
1.176757538026029
1.176758136836976
1.176758733765724
1.176758182389893
1.17675757230979
1.176757522605007
1.176760457506802
1.176767005036096
1.17678333552606
1.17682575390757
1.176867514079276
1.176877154332455
1.176876250055667
1.17687408382498
1.176872437986672
1.17686160770463
1.176837697423307
1.176789836326789
1.176711625807126
1.176631869335631
1.176576660271339
1.176530905627077
1.176454882058378
1.176284650536597
1.176045270625424
1.175935171054604
1.175926398846707
1.175925755507381
1.175926280015482
1.175932133185285
1.175940770010202
1.175945564014693
1.175947524403581
1.175953646104709
1.17596668181316
1.175981552920448
1.176030012472045
1.176097434819165
1.176134218002529
1.176140974913299
1.176142243713442
1.176154117346147
1.176176910547351
1.176263083578007
1.176454410788316
1.176614032991954
1.176645264443208
1.17664620279412
1.176646270996432
1.176652042102963
1.176661732133351
1.176698862394312
1.176774459717365
1.176825207574018
1.176832088251118
1.176830615428373
1.176828777523424
1.176830337021907
1.176831991450073
1.176830172632572
1.176830398348379
1.176834734122478
1.17683938516754
1.176830906208828
1.176817566175357
1.1768114700607
1.176754056765117
1.176594517770573
1.176268585712855
1.17601788754513
1.175977653538402
1.1759764267203
1.175976880288354
1.175978994571433
1.175981463634636
1.175988235957624
1.176003014550943
1.176015059779703
1.176017568553009
1.176016723933944
1.17601572401025
1.176015638093209
1.176014981167266
1.176014071738694
1.176014365795578
1.176016712886361
1.17601995596943
1.176022548112766
1.176038609888062
1.176083619114316
1.176221020558878
1.176509882712372
1.176755465460026
1.1768015602324
1.176802656292952
1.176802928586901
1.176803469586021
1.176801883947697
1.176799819547161
1.176800843807755
1.1768043225224
1.176804443592302
1.176805914028705
1.176820442918128
1.176842042158862
1.176858929831442
1.176863292103014
1.176865543636859
1.176869419658794
1.176858694044283
1.1768431616212
1.176839067766014
1.176774348525211
1.176588093543698
1.176240841296166
1.176023255546489
1.175997727723722
1.175997422061217
1.175997356668908
1.175998527894823
1.176000136672713
1.176003124074344
1.176004733041126
1.176005313689064
1.176004421412395
1.176003169095117
1.176003007872802
1.176001163663083
1.17599797176551
1.175996353428229
1.175996645667639
1.175998017527219
1.175997790837511
1.175999315614209
1.176012750805226
1.17603691791982
1.176133457795715
1.176377836759338
1.176703606076357
1.176827247763641
1.176835148549413
1.176835716599158
1.176834753380158
1.176833597788679
1.176833403682906
1.176832040908333
1.176827522114011
1.176822914855358
1.176821409705884
1.176821588511655
1.176821302315652
1.176820442382615
1.176821069604781
1.176823008623079
1.176819668883366
1.176814062527984
1.176814419347597
1.176812579269895
1.17679225835783
1.176752127184028
1.176603789255953
1.176284025383329
1.176008802520779
1.175956587102832
1.175955597848946
1.175955648215862
1.175954456459247
1.17595652211733
1.175959682530652
1.175960526578772
1.175960123864823
1.175964303596654
1.17597127834885
1.17597447999248
1.175974621556772
1.175977532970615
1.175983677248643
1.175986001630338
1.175978657257094
1.175989022716637
1.176012761155457
1.176034427710205
1.176162686924357
1.176455624337624
1.176742435414051
1.176808030015996
1.176810663539763
1.176811507591211
1.176810072301996
1.17680838597123
1.176808174017253
1.176809451839933
1.176809995892932
1.176808700030686
1.176811988064798
1.176819576618854
1.176825982768338
1.176844338579813
1.176862444210637
1.176867223442093
1.176864884554445
1.176859646583423
1.176858371359063
1.176854640626029
1.176827707923752
1.176771086056121
1.17658660692014
1.17623670204194
1.175993788383433
1.17595989482843
1.175959302243196
1.175959022979078
1.17596000296863
1.175963698086012
1.175968445258596
1.175972973626576
1.175974788711125
1.175975674341805
1.175975817360559
1.175974635894067
1.175974057905478
1.175976945662606
1.175980075193018
1.175978614111598
1.175978409808592
1.175985304279506
1.175996302311439
1.176002785154105
1.176056938449578
1.176203541796873
1.176523461009749
1.176802452544058
1.176857433943585
1.17685891664865
1.176858085998609
1.17685737955105
1.176856619182787
1.176852669412264
1.176846915540872
1.176843928516076
1.17684404992775
1.176844120056524
1.176842323380305
1.176841354184398
1.176843534813564
1.17684175697182
1.176836827019581
1.176833384272774
1.176836390452026
1.176830191188403
1.176810523036778
1.176786746233563
1.17667929393674
1.176412187085486
1.176076506305959
1.175961965682979
1.175955622388285
1.175954887976228
1.175955996038183
1.175957805508363
1.175959168103198
1.175961918987661
1.175969091687215
1.175975217164842
1.175976681813725
1.175975389120414
1.1759744517817
1.175976490135866
1.175977939589729
1.17597544355388
1.17597754660064
1.175984168423901
1.175989850579122
1.175993378705416
1.176033869464579
1.176133002263293
1.176400453986594
1.176740336838845
1.176859154257727
1.176865479778139
1.176864766371466
1.176864530579531
1.176864435466811
1.176862519734077
1.176860049432914
1.176859159083639
1.17685845982861
1.176853069357187
1.176844533717775
1.176839740657344
1.176840068347856
1.176841038254397
1.176838413183862
1.176836197936235
1.176838175343666
1.176833358403399
1.176817705993126
1.176796487715368
1.176707261662548
1.176476396724461
1.176130348099401
1.175971967005495
1.17595907982531
1.175958447700105
1.175959550096134
1.175960786507852
1.175960865956458
1.175961358044505
1.175963621893462
1.17596768182896
1.175974460037362
1.175984582934058
1.175990519379104
1.175991991684077
1.175991802132506
1.175990486471467
1.175992196134031
1.175995043846095
1.175996545517233
1.176000492666106
1.176025644058987
1.176087325495072
1.176276251550145
1.176618051605864
1.176842623932108
1.176872196616079
1.176873051781937
1.176874058722225
1.176872218196226
1.176868724033223
1.176866309959369
1.176865491479242
1.176860718154879
1.176848371713711
1.176831145109543
1.176812647930737
1.176804874140633
1.176801985109655
1.176803859867001
1.176807910196209
1.176807077104134
1.176799484900982
1.176792633956076
1.176788827434961
1.176743864613677
1.176633155479781
1.176353642528461
1.176040749803399
1.175951283367487
1.175947456187594
1.175948872144859
1.175949998880154
1.175950266664244
1.175954018552905
1.175963890062139
1.175980606832541
1.176007238712709
1.176022009780525
1.176024976703678
1.176022635566044
1.17601914046175
1.176018939345781
1.176021885866129
1.176022826721712
1.176019657531783
1.176027665709454
1.176045706000699
1.176060380903666
1.176146336313262
1.176369969689338
1.176707302334939
1.176863444702178
1.176876733697967
1.176878031342178
1.176876181787278
1.176873436412159
1.176871705537813
1.176867407128268
1.17684990665617
1.176823242221804
1.176806852184954
1.176804569028477
1.176804049792524
1.176803051186694
1.176805700243855
1.176809789797043
1.176805602975877
1.176798596560512
1.17679737681178
1.176793123616506
1.176759535498695
1.176690650304911
1.176477655907665
1.176135574152951
1.175961138868968
1.17594545799903
1.175946086062829
1.175946559611012
1.175947267374837
1.175951571319812
1.175960509054343
1.175976468391451
1.176003672088222
1.176019873763277
1.176022897907288
1.176020144772568
1.176016586521186
1.176017014330555
1.176018154135782
1.176017420381214
1.17601509978406
1.176023073036975
1.176038527807665
1.176048798462471
1.176121387095308
1.17631354321725
1.176649415736787
1.176848664360879
1.17687222379976
1.176873639014849
1.176871618724781
1.176868913778603
1.176868094758199
1.176863898097749
1.176848573339016
1.17682524990849
1.176808183311332
1.176804519061636
1.176803182333912
1.176803455694511
1.176806779192406
1.176810174968235
1.176805876779222
1.176800152877397
1.176801712622065
1.176796429246054
1.176767374721869
1.17671718647317
1.176541006631025
1.176209655456557
1.175983677083703
1.175952779660691
1.175952270073511
1.175951738702755
1.175953310935282
1.175958375476363
1.175965597596094
1.175980513766256
1.176005949820543
1.176021034518904
1.176023660595678
1.176020709500876
1.176017716710739
1.176018799163887
1.17601843888657
1.176015820770341
1.176015642952953
1.176023624383093
1.176035128127985
1.176041336455342
1.176098057608711
1.176247785571879
1.176561740746278
1.176818982864703
1.176866266874977
1.176868121712352
1.176866239390845
1.176863595834557
1.176862556963558
1.176855377562615
1.176837226351105
1.17681551444156
1.17680608737239
1.176804783505245
1.176803720421334
1.176805420121578
1.176809392069461
1.17681251922366
1.176807791761111
1.17680090263568
1.176797846185797
1.176792564088837
1.176773097032781
1.176744553039206
1.176609787412903
1.176307555502428
1.176028367771782
1.175964339558618
1.175938046686434
1.175930803260257
1.175939801172644
1.175972206407258
1.176023594150604
1.176062076469044
1.17608035456352
1.176075983768106
1.176009080948349
1.175905342336821
1.175852019547203
1.175834412519664
1.175842930348178
1.175851182286074
1.175846054098032
1.175833179727017
1.175850239704263
1.175888078976658
1.175939773224854
1.176062897853608
1.176310481277499
1.176591776098691
1.176657183580074
1.176643537556716
1.176621106898396
1.176617302828487
1.176676130267584
1.176823738266964
1.176932998126019
1.176961785982897
1.176957426360882
1.176949376135926
1.176951723485721
1.17696750979641
1.176981609068541
1.176975799172097
1.17695700528692
1.176943103079526
1.176933813419597
1.176913576341652
1.176884658718597
1.176857114575102
1.17678577102334
1.176609437708659
1.176359644367221
1.176246759735174
1.176226569931025
1.176244851503855
1.176241395600773
1.176175365436981
1.176015799660188
1.175907551882682
1.175879232964988
1.175879918090871
1.17588263490738
1.175884634551148
1.17587080707292
1.175862205642229
1.175866973405446
1.175874799067318
1.175885198985316
1.175888558835132
1.175897686663861
1.175910467263408
1.175929082689929
1.175998158804235
1.176175647628783
1.17648858943975
1.176671101842124
1.176693373918197
1.17668206665985
1.176672328915367
1.176687132030909
1.176776539752374
1.176896430894602
1.176950476937375
1.176956863790998
1.176947565320559
1.176950618887198
1.17695575387744
1.176969260342891
1.176984433815668
1.176989960910066
1.176988396892213
1.176975069098557
1.17696230493042
1.176941065508716
1.17691013824171
1.176853353090963
1.176699847694329
1.176402358098483
1.176199407188779
1.176164034532411
1.176169833760885
1.176179396536023
1.176166707912275
1.17609713115658
1.175992000213767
1.175937648008927
1.175913576800718
1.175899496832712
1.175886571833922
1.17587932139612
1.175872829365788
1.175872322558316
1.175874685076908
1.175879848732289
1.175886167335011
1.175890570277239
1.175893779296194
1.175916964012703
1.175952132454546
1.17607676597326
1.176361095934041
1.176660728128061
1.176750745042164
1.1767443761573
)
;

boundaryField
{
    inlet
    {
        type            calculated;
        value           uniform 1.176411716172193;
    }
    outlet
    {
        type            calculated;
        value           uniform 1.176739983871273;
    }
    frontAndBack
    {
        type            empty;
    }
}


// ************************************************************************* //
