/*--------------------------------*- C++ -*----------------------------------*\
| =========                 |                                                 |
| \\      /  F ield         | OpenFOAM: The Open Source CFD Toolbox           |
|  \\    /   O peration     | Version:  v2012                                 |
|   \\  /    A nd           | Website:  www.openfoam.com                      |
|    \\/     M anipulation  |                                                 |
\*---------------------------------------------------------------------------*/
FoamFile
{
    version     2.0;
    format      ascii;
    class       volScalarField;
    location    "0.006";
    object      p;
}
// * * * * * * * * * * * * * * * * * * * * * * * * * * * * * * * * * * * * * //

dimensions      [1 -1 -2 0 0 0 0];


internalField   nonuniform List<scalar> 
1000
(
101303.8077422974
101309.455257841
101304.4216026475
101294.6868447002
101292.3368176212
101286.41811649
101281.8707628172
101281.5782115267
101276.5439911854
101276.2123901225
101276.4717407403
101276.4209535188
101277.7722067566
101279.4863197592
101280.9088165789
101286.1613427673
101289.4868186434
101294.8040805139
101301.3274340377
101306.3224830083
101313.0982916136
101319.5841354135
101326.2003945251
101333.0057954121
101339.3414952921
101345.899535724
101351.7074346475
101357.1040287658
101362.2365344877
101366.3684847719
101371.7043002629
101372.9028714311
101372.8497090798
101372.7777396056
101372.7089037581
101371.0087902429
101370.5659901882
101368.6959383565
101364.4193744791
101362.4447648214
101356.7910311398
101350.9441683612
101345.7988705743
101338.1676288171
101331.9841261556
101325.1998099827
101318.2553516935
101312.0086374652
101305.4808235009
101299.4125381486
101293.7298884847
101288.4954790912
101282.8828195522
101278.1404936808
101277.6201584171
101277.7082672751
101277.9550854892
101277.9355214985
101279.428714903
101280.2848229809
101281.4119805934
101285.4540091981
101287.3187589972
101291.9885278486
101297.7049165829
101302.2496540995
101309.7301190472
101316.1325766944
101322.9160890977
101330.3342263184
101336.6736038289
101343.3096409826
101349.456699927
101355.1777432701
101360.5769221914
101366.5904243942
101371.6891480816
101371.88069881
101371.826516786
101371.900735141
101371.032303744
101370.9167403402
101369.4794591847
101367.3982369253
101366.3054328084
101362.0974919532
101358.6884107413
101354.7562315819
101348.1214858768
101343.0490020903
101336.0627393459
101328.8041753849
101322.1228161485
101314.6060828601
101307.8757971746
101301.3397029769
101294.9995098257
101289.6254495765
101282.7537945657
101278.7131556729
101278.6391921407
101278.6764011546
101278.7486858053
101279.4668463142
101279.504339734
101281.0257589281
101282.6356460951
101284.0667848251
101288.032623122
101290.4052916064
101294.9145964745
101300.7251619786
101305.2676508866
101312.5143014932
101319.112602349
101325.9089025107
101333.5672792314
101340.3001853804
101347.2655753282
101353.7323071296
101359.3238317136
101366.4866056622
101370.7605671841
101371.1020755437
101371.06930071
101370.775661294
101370.8229233759
101369.7624492957
101368.9271338582
101367.905012594
101365.0398674172
101363.4469788056
101359.7019928017
101355.4307843655
101351.6979545598
101345.238169505
101339.6517796019
101333.301565356
101325.4501867649
101318.8664735029
101311.2787071438
101303.8951981218
101297.1981411998
101290.6798137513
101282.443794813
101279.364659322
101279.4131192388
101279.3041739586
101279.4963498148
101280.1661615193
101280.1560215722
101281.4044794778
101283.0471075494
101284.0530810944
101287.4338172131
101289.9704763447
101293.3853052544
101298.8584038888
101302.9844550272
101309.2795962544
101315.8267373751
101322.1436933075
101329.7649458415
101336.8009529357
101344.0414797653
101351.3294031584
101357.5786942625
101366.1281655004
101370.3681726533
101370.5047332467
101370.4999789521
101370.204450788
101370.1831671995
101369.5181685666
101368.3195009349
101367.7668649482
101365.4415837312
101363.0564243417
101361.4041193403
101356.486429912
101352.6784372083
101348.5963780209
101341.5576627709
101336.2981866943
101329.3919990089
101321.7590506061
101314.9256763795
101307.0665205611
101299.5816797201
101292.8595549126
101283.3360496035
101279.9067062041
101279.8955943408
101279.9856836524
101279.9708057667
101280.5631727491
101280.9688552682
101281.4712954364
101283.4293145595
101284.3104685658
101286.6749138313
101289.9111635237
101292.2386924693
101297.1425013363
101301.4967028528
101306.3962864692
101313.2041972539
101318.9216732741
101326.1659076776
101333.560073241
101340.5244298093
101348.4388860363
101355.1893068834
101364.2181084186
101369.7060987632
101369.8400900027
101369.755326448
101369.7198773009
101369.3730883102
101368.8714342545
101368.3369151919
101366.8327815941
101365.7025172507
101363.6921873771
101360.7736727353
101358.3066781859
101353.9622728164
101349.6729684966
101344.8662742927
101338.4664989866
101332.6795537615
101325.4280657047
101318.0634062508
101310.8060655108
101302.4945341479
101295.4593782436
101285.5259363329
101280.5307999982
101280.4626146636
101280.5293166012
101280.5168973211
101281.0475901014
101281.3944003669
101281.9198565488
101283.4290156541
101284.4430619262
101286.6677371139
101289.0403911488
101291.8199630359
101295.9193156155
101299.7275563742
101304.8687387664
101310.5182266413
101316.360700041
101323.2097225116
101330.198596893
101337.5751087529
101345.1449915762
101352.5527972864
101361.1641940865
101368.8288485897
101369.2544139981
101369.2810259227
101369.1041134206
101368.991161019
101368.4903390524
101367.7141356274
101367.0347498176
101365.3824441064
101363.7018452124
101361.7152352783
101358.2962091024
101355.5037822703
101351.0629825234
101346.2863274337
101341.407163499
101334.6577793913
101328.6213586548
101321.4472500132
101313.5417894929
101306.1941494956
101298.2103524359
101289.1409055694
101281.3908210883
101281.0071962113
101281.0527020561
101281.0508814469
101281.4392365993
101281.8730642172
101282.1049996066
101283.6862816971
101284.5923497892
101286.153336148
101289.1496957411
101290.9767952095
101294.6327132145
101299.0823425528
101302.6915273828
101308.5329065168
101314.2087873372
101320.1693345969
101327.4656285579
101334.3690249817
101341.9583415037
101349.7500033824
101357.3922677272
101367.2550324753
101368.579070527
101368.5664616372
101368.4759616408
101368.4512519584
101367.9415408741
101367.5780300776
101366.7297384525
101365.2137430906
101364.2067194758
101361.6408305243
101359.1848563787
101356.2668584752
101352.1686452953
101348.1956760062
101342.8760372372
101337.3723135994
101331.180023413
101324.1903695095
101317.0617667673
101309.271611965
101301.3493054125
101293.3731743514
101283.0346978902
101281.6396872603
101281.5428616015
101281.5698005101
101281.8784769997
101282.1949356603
101282.5261409239
101283.8321420763
101284.4973340861
101286.1743902121
101288.5934047086
101290.3752902626
101294.1618714766
101297.5239497884
101301.3975276489
101307.0191052316
101311.7172852607
101317.8871390247
101324.7013694121
101331.1412979445
101338.8041270288
101346.4807937638
101353.4519180526
101363.9247788351
101368.1164545175
101368.0839899131
101368.2426752192
101368.0421790656
101367.6915020348
101367.3655757497
101366.5362322789
101365.3962780617
101364.1527060941
101362.0428816948
101359.8314197469
101356.9727948231
101353.2683982428
101349.4547998663
101344.5772853506
101339.2749681589
101333.4280238078
101326.8545683585
101319.83614752
101312.4295444804
101304.5239413949
101297.1029092041
101286.3838637384
101282.1882089664
101282.1796879635
101282.012619049
101282.2848104428
101282.6116752833
101282.898138547
101283.8290397688
101284.8136762868
101286.2387726595
101288.1634973337
101290.3218618147
101293.2626804957
101296.6062538883
101300.4300101473
101305.082335138
101310.0900268739
101315.7737957346
101322.0167979705
101328.7076643028
101335.8366655882
101343.2853167503
101350.6795788836
101359.4371797937
101367.2489747173
101367.6426290701
101367.5960623914
101367.5651512877
101367.3105410812
101366.8019640255
101366.4698087641
101365.1031941806
101363.9978944403
101362.6386969361
101359.6769382726
101357.8044723038
101354.5332668668
101349.9543666273
101346.6023881543
101341.0486036771
101335.2361018061
101329.66107827
101322.3251649264
101315.3266504734
101307.7971013408
101299.9508865385
101291.1523917448
101282.996823272
101282.5935186189
101282.641198895
101282.6409608543
101282.9678730816
101283.4075754243
101283.7456293279
101285.0714741609
101286.1708495059
101287.67608018
101290.1789921173
101292.5649382854
101295.539261162
101299.591861774
101303.5777659575
101308.2032987358
101314.0964969828
101319.5603925587
101325.9375910941
101333.2054877641
101339.9101850509
101347.6283097549
101354.9636487986
101364.9289960845
101367.1005407104
101367.1019496723
101367.0883809437
101366.8438090531
101366.6030626775
101366.1965673299
101365.0698418751
101364.0090165198
101363.0605874519
101360.1593318283
101358.3728840844
101355.4344209518
101351.2750283308
101347.9868834784
101342.6361439291
101337.4397975984
101331.9116204759
101324.8527678413
101318.3081912632
101310.856772703
101302.8952493887
101295.6086237172
101285.0862172874
101283.1720770173
101283.1248098466
101283.172441015
101283.3538813104
101283.7779696252
101284.1338181428
101285.1814632341
101286.1812087312
101287.6138024499
101289.8018752657
101291.8636450083
101295.04844123
101298.3465516418
101302.2581928946
101307.0202184172
101311.8400791524
101317.6157908479
101323.7063897787
101330.2084924234
101337.2956422043
101344.5808394862
101351.5652110273
101361.2483820291
101366.4003835386
101366.4483986896
101366.4795835372
101366.3660742969
101366.1088756217
101365.6960638964
101365.0184296587
101364.0047293615
101362.624706066
101360.9139499035
101358.5810791011
101355.9064117297
101352.6683525045
101348.7078623482
101344.4656897384
101339.3382227154
101333.6990796908
101327.7336856045
101320.8428689656
101313.796925047
101306.328436259
101298.9591095915
101289.0334464217
101283.7534253624
101283.6670630623
101283.757937684
101283.7815947553
101284.087267379
101284.6182630726
101285.0357872791
101286.4032555421
101287.5975170366
101289.1991087988
101291.7912000378
101294.0976000611
101297.4652900414
101301.2260073697
101305.292298543
101310.3784069132
101315.4786382122
101321.5497775748
101327.8527761654
101334.5266693989
101341.8186553009
101348.8041571825
101356.7680476628
101365.1918418758
101366.0159924513
101365.9975683516
101365.8146452283
101365.8065588572
101365.225058821
101364.5858575233
101364.0990626831
101362.2776007809
101361.1879997937
101359.1977299483
101356.1127717097
101353.9149984957
101349.7385899934
101345.6911114983
101341.4496546419
101335.3480053849
101330.0574790323
101323.5815218477
101316.2466256548
101309.4802822726
101301.8413607291
101293.4747670939
101285.0823665883
101284.1916105286
101284.1303501434
101284.4129577644
101284.4485929101
101284.7196025246
101285.676004741
101286.1564385543
101287.4666552276
101289.4865322612
101290.7427057006
101293.6703901633
101296.9191876107
101299.6761643062
101304.3637264766
101308.6991065342
101313.5766961827
101319.5297803889
101325.2691823898
101331.9240891962
101338.7461287
101345.8407736896
101352.7007148658
101362.5142184159
101365.424033713
101365.4554962959
101365.4508844041
101365.1677769177
101365.1551759254
101364.4465864932
101363.5710498965
101363.0612809123
101360.9488299418
101359.4834402378
101357.4706418248
101353.8907992034
101351.3720234415
101347.1021929965
101342.4289632736
101338.0053978926
101331.7439303752
101325.9631779901
101319.3552354306
101312.0381343294
101304.9593182087
101297.7050149121
101287.539532478
101284.8446934023
101284.7939681766
101284.7676131202
101284.955789616
101285.4080991042
101285.5455478413
101286.5325688095
101287.7589846468
101288.5720086674
101290.9703057233
101293.1239386723
101295.5470094958
101299.2221360146
101302.6435017448
101307.0445480848
101311.9421258846
101317.1253539139
101323.0766059075
101329.3318545361
101335.9644666476
101342.9730463233
101349.7308040289
101358.5582424619
101364.5266147782
101364.9603530707
101364.9403605702
101364.7353694937
101364.7945402255
101364.0075409477
101363.5613937655
101362.8759083054
101360.953302037
101359.9987828627
101357.5963504387
101354.7776444139
101352.2628856664
101348.1841899171
101344.1369015589
101339.4884971708
101334.0166443292
101328.1953677134
101321.7796116608
101315.0512845358
101307.6790615726
101300.8193575067
101291.4871372911
101285.5101014373
101285.2963130106
101285.2864362666
101285.5115865068
101285.56340702
101285.9801781185
101286.8961606145
101287.3438254117
101288.9782977994
101290.6632354304
101292.2088071868
101295.4672736764
101298.0459089884
101301.4140219809
101306.1724621365
101310.0852344195
101315.3793183119
101321.2510104754
101326.7946892574
101333.5944152646
101340.2066806906
101347.0272010654
101354.2166329551
101362.9749840404
101364.4560253978
101364.4241820521
101364.393244902
101364.2608072261
101363.6444113524
101363.5552858073
101362.5191657359
101361.1253356386
101360.2674644275
101357.7834587393
101355.6487187711
101352.8284833593
101349.2420680487
101345.7027245722
101340.6892346649
101335.939304805
101330.4526430412
101323.935855541
101317.6897335324
101310.6916393598
101303.3965126728
101296.0958327103
101286.9676026917
101285.9613117006
101286.0158886297
101285.9679425629
101286.1470498796
101286.6401236486
101286.8429232267
101287.8960199325
101289.1606308662
101289.8867759413
101292.5555229289
101294.5790473985
101297.0511587916
101300.8567508056
101304.2238891563
101308.7061401056
101313.5618800827
101318.7325113719
101324.6778697388
101330.7714938299
101337.3379191503
101344.2269777804
101350.6639010422
101359.7837276732
101363.967504548
101364.0280442578
101363.9695032449
101363.8132115677
101363.7908776069
101362.9036170944
101362.3893885472
101361.7439144999
101359.6289328695
101358.5945226508
101356.2205131719
101353.1982151352
101350.6867684615
101346.4404094173
101342.4020236781
101337.7827159857
101332.0819681727
101326.5862562443
101320.0652246546
101313.4058127069
101306.4016469687
101299.6082041686
101289.9989092672
101286.3388202496
101286.3343720507
101286.1897527605
101286.4673056003
101286.7423093017
101287.0491556519
101287.9572139513
101288.812015187
101290.2740344781
101291.9604211039
101293.9835947487
101296.7898910506
101299.6201240952
101303.3275512856
101307.4336261389
101311.8217629912
101317.2106824689
101322.4893024478
101328.5358588752
101335.0225305964
101341.352415798
101348.1612114644
101355.7475539959
101362.9065035424
101363.42932136
101363.4522264153
101363.2696494352
101363.1314756891
101362.9132125875
101361.9238360616
101361.4335688313
101360.1481549609
101358.1454613093
101357.1033775952
101353.9871220901
101350.9141218412
101348.3306555234
101343.4467791326
101339.3389355655
101334.42787789
101328.3641525237
101322.7679934718
101316.0022767982
101309.1219051318
101302.5609604252
101294.0984967677
101287.1812105779
101286.8621210735
101286.8404306171
101286.9955547291
101287.0733622739
101287.540468698
101288.1154207765
101288.8677840533
101290.279360042
101291.4698085833
101293.6634158884
101296.1327443556
101298.5541624225
101302.4731234348
101306.0171621987
101310.2299255542
101315.4094867076
101320.4054655393
101326.2480637374
101332.4151267794
101338.7326638692
101345.5897194369
101351.8687474436
101361.1371611742
101363.7689243177
101363.7849810036
101363.8541154334
101363.6140168936
101363.4683236183
101363.1897067481
101362.3980292559
101361.8780027376
101360.648517015
101359.2486801045
101357.7858468723
101355.5080686139
101353.3095004276
101350.532666161
101347.4129490976
101344.1058742496
101340.3327215209
101336.4456691315
101332.666954714
101327.2582071459
101325.0258073453
101325.0000002486
101324.9999999957
101324.9999999958
101324.9999999958
101324.9999999959
101324.9999999963
101324.9999999966
101324.9999999972
101324.9999999982
101324.9999999983
101324.9999999986
101324.9999999995
101324.9999999999
101324.9999999999
101324.9999999999
101325
101324.9999999999
101324.9999999999
101325
101325
101325.0000000001
101324.9999999999
101325
101325.0000000001
101325
101325
101325
101325.0000000001
101325
101325.0000000001
101325
101325.0000000001
101325
101325
101325
101325.0000000001
101325.0000000001
101325.0000000001
101324.9999999999
101325.0000000002
101325.0000000001
101325.0000000002
101325
101325.0000000001
101325.0000000002
101325.0000000001
101325.0000000002
101325.0000000001
101325.0000000001
101325.0000000003
101324.9999999998
101325.0000000003
101325.0000000001
101325.0000000002
101325
101325.0000000004
101325.0000000002
101325.0000000001
101325.0000000002
101325.0000000003
101325.0000000001
101325.0000000002
101325.0000000002
101325.0000000002
101325.0000000001
101325.0000000003
101325.0000000002
101325.0000000003
101325.0000000003
101325.0000000002
101325.0000000003
101325.0000000002
101325.0000000004
101325.0000000002
101325.0000000004
101325.0000000002
101325.0000000002
101325.0000000003
101325.0000000002
101325.0000000004
101325.0000000002
101325.0000000003
101325.0000000002
101325.0000000002
101325.0000000002
101325.0000000002
101325.0000000002
101325.0000000002
101325.0000000002
101325.0000000002
101325.0000000003
101325.0000000002
101325.0000000002
101325.0000000003
101325.0000000003
101325.0000000002
101325.0000000002
101325.0000000002
101325.0000000001
101325.0000000004
101325.0000000003
101325.0000000003
101325
101325.0000000003
101325.0000000002
101325.0000000002
101325.0000000002
101325.0000000003
101325.0000000001
101325.0000000002
101325.0000000002
101325.0000000001
101325.0000000003
101325.0000000001
101325.0000000003
101325.0000000002
101325.0000000002
101325.0000000003
101325.0000000002
101325.0000000003
101325.0000000002
101325.0000000003
101325.0000000002
101325.0000000003
101325.0000000003
101325.0000000002
101325.0000000003
101325.0000000003
101325.0000000003
101325.0000000003
101325.0000000003
101325.0000000003
101325.0000000003
101325.0000000002
101325.0000000003
101325.0000000004
101325.0000000002
101325.0000000003
101325.0000000001
101325.0000000003
101325.0000000002
101325.0000000004
101325.0000000002
101325.0000000003
101325.0000000001
101325.0000000003
101325.0000000003
101325.0000000003
101325.0000000003
101325.0000000001
101325.0000000002
101325.0000000002
101325.0000000001
101325.0000000001
101325.0000000001
101325.0000000002
101325.0000000001
101325.0000000001
101325.0000000002
101325.0000000002
101325.0000000002
101325.0000000001
)
;

boundaryField
{
    inlet
    {
        type            uniformFixedValue;
        uniformValue    sine;
        uniformValueCoeffs
        {
            frequency       constant 3000;
            scale           constant 50;
            level           constant 101325;
        }
        value           uniform 101312.8819131453;
    }
    outlet
    {
        type            waveTransmissive;
        gamma           1.4;
        fieldInf        101325;
        lInf            2.25;
        value           uniform 101325.0000000001;
    }
    frontAndBack
    {
        type            empty;
    }
}


// ************************************************************************* //
