/*--------------------------------*- C++ -*----------------------------------*\
| =========                 |                                                 |
| \\      /  F ield         | OpenFOAM: The Open Source CFD Toolbox           |
|  \\    /   O peration     | Version:  v2012                                 |
|   \\  /    A nd           | Website:  www.openfoam.com                      |
|    \\/     M anipulation  |                                                 |
\*---------------------------------------------------------------------------*/
FoamFile
{
    version     2.0;
    format      ascii;
    class       volVectorField;
    location    "0.006";
    object      U;
}
// * * * * * * * * * * * * * * * * * * * * * * * * * * * * * * * * * * * * * //

dimensions      [0 1 -1 0 0 0 0];


internalField   nonuniform List<vector> 
1000
(
(-0.02052926843711905 0 0)
(-0.0488511060557732 0 0)
(-0.04799112815432253 0 0)
(-0.07470662457983659 0 0)
(-0.08197804892268551 0 0)
(-0.09394421562163952 0 0)
(-0.1051235465883403 0 0)
(-0.1063524024991691 0 0)
(-0.1186246871606358 0 0)
(-0.1194270405678315 0 0)
(-0.1188344753083963 0 0)
(-0.1189213993719722 0 0)
(-0.1156287974475672 0 0)
(-0.1114280699900595 0 0)
(-0.1079442264475116 0 0)
(-0.09508260229552498 0 0)
(-0.08694049007761202 0 0)
(-0.07391856206514803 0 0)
(-0.05794848711349787 0 0)
(-0.04572043058724011 0 0)
(-0.02913139773770048 0 0)
(-0.01325612969436881 0 0)
(0.002939568884394179 0 0)
(0.01959723010579071 0 0)
(0.0351028480370168 0 0)
(0.0511525400198108 0 0)
(0.06536605075944396 0 0)
(0.07857204697864383 0 0)
(0.09113149919917871 0 0)
(0.1012440811398408 0 0)
(0.1142942140949478 0 0)
(0.1172310836901061 0 0)
(0.11710086031886 0 0)
(0.1169254003549301 0 0)
(0.1167567604501304 0 0)
(0.1125968469917068 0 0)
(0.1115134041568697 0 0)
(0.106938106706391 0 0)
(0.09647331266563412 0 0)
(0.09164212162244834 0 0)
(0.07780725165029374 0 0)
(0.06349824707021859 0 0)
(0.0509068397239151 0 0)
(0.03222967862152692 0 0)
(0.01709541150729603 0 0)
(0.0004901922066485557 0 0)
(-0.01650915556500231 0 0)
(-0.03180056779634821 0 0)
(-0.0477807664553093 0 0)
(-0.06263758018907746 0 0)
(-0.07655110897654706 0 0)
(-0.08936707714539975 0 0)
(-0.1031100917895115 0 0)
(-0.1147226674870213 0 0)
(-0.1159967482187205 0 0)
(-0.1157810851436702 0 0)
(-0.1151766826491782 0 0)
(-0.1152244233547305 0 0)
(-0.1115679567386727 0 0)
(-0.1094713473186386 0 0)
(-0.1067111795214168 0 0)
(-0.09681390385320778 0 0)
(-0.09224811924501924 0 0)
(-0.08081434234855382 0 0)
(-0.06681838189198218 0 0)
(-0.05569187224841198 0 0)
(-0.03737884483255319 0 0)
(-0.02170524315318294 0 0)
(-0.005100857444986871 0 0)
(0.01305855186486495 0 0)
(0.02857328966474607 0 0)
(0.04481475977400716 0 0)
(0.05985845120215096 0 0)
(0.07386210177400028 0 0)
(0.08706196089453579 0 0)
(0.1017911009189855 0 0)
(0.1142608840766663 0 0)
(0.1147302577323283 0 0)
(0.1145983392149893 0 0)
(0.114778987472485 0 0)
(0.1126542375726301 0 0)
(0.1123715149186583 0 0)
(0.1088548951205672 0 0)
(0.103762505395255 0 0)
(0.1010886309012149 0 0)
(0.0907920365114806 0 0)
(0.08244980857051042 0 0)
(0.07282754125898522 0 0)
(0.05659088327505028 0 0)
(0.04417686273028033 0 0)
(0.02707831507207939 0 0)
(0.009311974246538205 0 0)
(-0.00704213662282353 0 0)
(-0.02544236443796568 0 0)
(-0.04191834001474296 0 0)
(-0.05791860024516043 0 0)
(-0.07344362477272574 0 0)
(-0.08659977042213117 0 0)
(-0.1034260615109376 0 0)
(-0.1133201304585867 0 0)
(-0.1135010137603476 0 0)
(-0.1134097754090773 0 0)
(-0.1132332986503099 0 0)
(-0.1114747827056216 0 0)
(-0.1113829600270819 0 0)
(-0.1076573853443395 0 0)
(-0.1037152958098581 0 0)
(-0.1002109725654451 0 0)
(-0.09050028031184415 0 0)
(-0.08469084979933832 0 0)
(-0.07365018280671252 0 0)
(-0.05942419621621152 0 0)
(-0.04830305952697552 0 0)
(-0.03056272423364821 0 0)
(-0.0144106244304855 0 0)
(0.002225703762383588 0 0)
(0.0209703887187169 0 0)
(0.03744921170437431 0 0)
(0.05449614039918298 0 0)
(0.07032135883626038 0 0)
(0.08400487077905697 0 0)
(0.1015318416602493 0 0)
(0.1119894401611528 0 0)
(0.1128251573661427 0 0)
(0.1127449846012562 0 0)
(0.1120264629263799 0 0)
(0.112142086757676 0 0)
(0.1095473457347345 0 0)
(0.107503383926596 0 0)
(0.1050024522296764 0 0)
(0.09799144503586116 0 0)
(0.09409380153888149 0 0)
(0.08493029556793412 0 0)
(0.07447794160788211 0 0)
(0.06534320473586815 0 0)
(0.04953453427750965 0 0)
(0.03586238899920763 0 0)
(0.0203202693719443 0 0)
(0.001102657081333364 0 0)
(-0.0150130457084708 0 0)
(-0.03358752904544195 0 0)
(-0.0516631303527212 0 0)
(-0.06805924440776798 0 0)
(-0.08401889043257404 0 0)
(-0.1041849842532072 0 0)
(-0.1117248160625352 0 0)
(-0.1116061554547124 0 0)
(-0.1118728780962444 0 0)
(-0.1114023807078611 0 0)
(-0.1097622485307064 0 0)
(-0.1097870587154638 0 0)
(-0.1067299500192044 0 0)
(-0.1027077182832361 0 0)
(-0.100244560535729 0 0)
(-0.09196658324360364 0 0)
(-0.08575557327650864 0 0)
(-0.07739463614535023 0 0)
(-0.06399461702956126 0 0)
(-0.05389280268554696 0 0)
(-0.03848155520790447 0 0)
(-0.02245397872194126 0 0)
(-0.006990641707317872 0 0)
(0.01166407889816525 0 0)
(0.02888503214311685 0 0)
(0.04660560512525743 0 0)
(0.06444125291655853 0 0)
(0.07973423558016292 0 0)
(0.1006543738918196 0 0)
(0.1110294671592415 0 0)
(0.1113634944517716 0 0)
(0.1113516801937278 0 0)
(0.1106286503848314 0 0)
(0.1105766587783913 0 0)
(0.1089497098637392 0 0)
(0.106017082795985 0 0)
(0.1046646824493429 0 0)
(0.09897481235873545 0 0)
(0.09313809279540573 0 0)
(0.08909435800419105 0 0)
(0.07706075289349867 0 0)
(0.06774215733161383 0 0)
(0.05775307528304059 0 0)
(0.04052695898612934 0 0)
(0.02765519939011787 0 0)
(0.0107514089661164 0 0)
(-0.007931670730463311 0 0)
(-0.02465799279419282 0 0)
(-0.04390052233051864 0 0)
(-0.06222605712432075 0 0)
(-0.07868242500426212 0 0)
(-0.1020027034811526 0 0)
(-0.1103992860246603 0 0)
(-0.1104240751294964 0 0)
(-0.1102016267526255 0 0)
(-0.1102388311406101 0 0)
(-0.1087869659053312 0 0)
(-0.1077943461619085 0 0)
(-0.1065668880586718 0 0)
(-0.1017751970767398 0 0)
(-0.09961627843271595 0 0)
(-0.09382548889227721 0 0)
(-0.08590266741652372 0 0)
(-0.08019454623780022 0 0)
(-0.06819222248364692 0 0)
(-0.05753406761664468 0 0)
(-0.04553833238779906 0 0)
(-0.02888108404466375 0 0)
(-0.01488274110735041 0 0)
(0.002848290343065571 0 0)
(0.02095803206910905 0 0)
(0.03799331585063686 0 0)
(0.05737173397357003 0 0)
(0.07388728323535143 0 0)
(0.09598092340552103 0 0)
(0.1094106369460589 0 0)
(0.10973885046867 0 0)
(0.1095299019029391 0 0)
(0.1094439452048478 0 0)
(0.1085946929208694 0 0)
(0.1073678866962711 0 0)
(0.1060594909724086 0 0)
(0.1023779285971544 0 0)
(0.09961142023438387 0 0)
(0.09469313641515366 0 0)
(0.08755280867106538 0 0)
(0.08151608933396397 0 0)
(0.07088465358589309 0 0)
(0.06038783062673198 0 0)
(0.04862413229435024 0 0)
(0.03296130534862474 0 0)
(0.01879771367237715 0 0)
(0.001048382267406875 0 0)
(-0.01697889719641888 0 0)
(-0.03474466366025288 0 0)
(-0.05509247450693907 0 0)
(-0.07231652429518232 0 0)
(-0.09663829635057104 0 0)
(-0.1088694581450455 0 0)
(-0.1090364473734733 0 0)
(-0.1088731410827064 0 0)
(-0.1089034988226219 0 0)
(-0.1076039872419412 0 0)
(-0.1067546593859843 0 0)
(-0.105467930095681 0 0)
(-0.1017726661907554 0 0)
(-0.09928953606015663 0 0)
(-0.09384242546966501 0 0)
(-0.08803307107728491 0 0)
(-0.08122706916301539 0 0)
(-0.07119035241666295 0 0)
(-0.06186657243968657 0 0)
(-0.04927995469750296 0 0)
(-0.03544940287246974 0 0)
(-0.021147019036599 0 0)
(-0.004381641041551123 0 0)
(0.01272523677057798 0 0)
(0.03077970981619318 0 0)
(0.04930634313035873 0 0)
(0.06743520987386775 0 0)
(0.08850789973907909 0 0)
(0.1072627841936555 0 0)
(0.1083041030489539 0 0)
(0.1083692589890097 0 0)
(0.107936358023078 0 0)
(0.1076599507591786 0 0)
(0.1064345111031356 0 0)
(0.1045352851097035 0 0)
(0.1028728045913894 0 0)
(0.09882982968559059 0 0)
(0.09471777295526417 0 0)
(0.08985623664670124 0 0)
(0.08148976548404564 0 0)
(0.07465645977414942 0 0)
(0.06378911174171314 0 0)
(0.0520999547354119 0 0)
(0.040158848001396 0 0)
(0.0236393310590316 0 0)
(0.008864518382098086 0 0)
(-0.008696200584392773 0 0)
(-0.02804771607651254 0 0)
(-0.04603448760011961 0 0)
(-0.06558141974225308 0 0)
(-0.08778690240380053 0 0)
(-0.1067636911479929 0 0)
(-0.1077029708480227 0 0)
(-0.1075912662696087 0 0)
(-0.1075954971162676 0 0)
(-0.1066450214508967 0 0)
(-0.1055829030588036 0 0)
(-0.1050148891901845 0 0)
(-0.1011428601504159 0 0)
(-0.09892431821954654 0 0)
(-0.0951020325962933 0 0)
(-0.0877652675386941 0 0)
(-0.08329176524318682 0 0)
(-0.07434049092586159 0 0)
(-0.06344640712189165 0 0)
(-0.05461020579315464 0 0)
(-0.0403094065441084 0 0)
(-0.0264149212004098 0 0)
(-0.01182401790406866 0 0)
(0.006035808941708506 0 0)
(0.02293331459639805 0 0)
(0.04150600191144197 0 0)
(0.06057827363649138 0 0)
(0.07927630542781654 0 0)
(0.1034121234427347 0 0)
(0.106651545530457 0 0)
(0.1066206821898142 0 0)
(0.1063992575873036 0 0)
(0.1063388024913854 0 0)
(0.1050916080507035 0 0)
(0.1042021775639551 0 0)
(0.1021265243606054 0 0)
(0.09841698012776123 0 0)
(0.09595285620205286 0 0)
(0.08967426169625059 0 0)
(0.08366444546027547 0 0)
(0.07652388917206211 0 0)
(0.06649495430782355 0 0)
(0.05677215637896017 0 0)
(0.04375340350242944 0 0)
(0.03028338814377912 0 0)
(0.01512725609854815 0 0)
(-0.001981162256586888 0 0)
(-0.01943096986766193 0 0)
(-0.03850110534704131 0 0)
(-0.05789619451239757 0 0)
(-0.0774245583057659 0 0)
(-0.1027383590652437 0 0)
(-0.1061542583910852 0 0)
(-0.1063913769518894 0 0)
(-0.1063253031478033 0 0)
(-0.1055694162402615 0 0)
(-0.1047945199748333 0 0)
(-0.1039835366446053 0 0)
(-0.1007856575669392 0 0)
(-0.09915689721050586 0 0)
(-0.09505054511728221 0 0)
(-0.08912759166697541 0 0)
(-0.08476460881891676 0 0)
(-0.07549340868620194 0 0)
(-0.06726189382336054 0 0)
(-0.05777823179018918 0 0)
(-0.04401553209131543 0 0)
(-0.03251400512821971 0 0)
(-0.01741050424866743 0 0)
(-0.000730355962375432 0 0)
(0.01503251040844623 0 0)
(0.03378773484329443 0 0)
(0.05257519875216652 0 0)
(0.06963552377186551 0 0)
(0.09526276263548775 0 0)
(0.1055193421190366 0 0)
(0.1054400224034706 0 0)
(0.1058283165747634 0 0)
(0.105337839233471 0 0)
(0.1044798023342161 0 0)
(0.1036823074016532 0 0)
(0.1016529959938231 0 0)
(0.09886362065220738 0 0)
(0.09582069299009228 0 0)
(0.09065800098465673 0 0)
(0.08524658299439798 0 0)
(0.07825136399089126 0 0)
(0.06918615888661361 0 0)
(0.05985356385516848 0 0)
(0.04791684927456862 0 0)
(0.03493994747593211 0 0)
(0.02062946535050673 0 0)
(0.004539939428560093 0 0)
(-0.01263955265834482 0 0)
(-0.03077035575427055 0 0)
(-0.05012417696969202 0 0)
(-0.06829259787258071 0 0)
(-0.09453795556504885 0 0)
(-0.1048109750445038 0 0)
(-0.1048319801430653 0 0)
(-0.1052410427887157 0 0)
(-0.1045745875619528 0 0)
(-0.1037742311320565 0 0)
(-0.1030727659300745 0 0)
(-0.1007933149074981 0 0)
(-0.09838233844457575 0 0)
(-0.09489294953440215 0 0)
(-0.09018023634243212 0 0)
(-0.0848954755110255 0 0)
(-0.07769500432649923 0 0)
(-0.06950873370715729 0 0)
(-0.06014707405011492 0 0)
(-0.04875714710097188 0 0)
(-0.03649778994629224 0 0)
(-0.02258369674236634 0 0)
(-0.007301843233724956 0 0)
(0.009075795450351065 0 0)
(0.02652486736965803 0 0)
(0.04475482544417254 0 0)
(0.06285090699281036 0 0)
(0.08428170596111964 0 0)
(0.1033968526474025 0 0)
(0.1043600238121074 0 0)
(0.1042461873464042 0 0)
(0.1041705226198905 0 0)
(0.1035475145823769 0 0)
(0.1023031136886744 0 0)
(0.1014904102147257 0 0)
(0.09814643990031519 0 0)
(0.09544176857787055 0 0)
(0.0921158218436484 0 0)
(0.08486852434635424 0 0)
(0.08028649632702156 0 0)
(0.07228149591089697 0 0)
(0.06107616095428141 0 0)
(0.0528728623882946 0 0)
(0.03928085021767039 0 0)
(0.02505483009830926 0 0)
(0.01140928206745445 0 0)
(-0.006547008607801733 0 0)
(-0.02367860568551651 0 0)
(-0.04211109524890787 0 0)
(-0.06132004224525733 0 0)
(-0.08286209509909671 0 0)
(-0.1028311794959284 0 0)
(-0.1038187525054276 0 0)
(-0.1037021383491527 0 0)
(-0.1037026853060758 0 0)
(-0.1029018354146792 0 0)
(-0.1018250648881504 0 0)
(-0.1009976724581989 0 0)
(-0.09775130714299884 0 0)
(-0.09505945000947638 0 0)
(-0.09137388701616134 0 0)
(-0.08524512424347969 0 0)
(-0.07940317659960514 0 0)
(-0.0721210512928844 0 0)
(-0.06219854617545036 0 0)
(-0.05244096601514937 0 0)
(-0.04111583949769461 0 0)
(-0.02668896298432258 0 0)
(-0.01331531897891523 0 0)
(0.002295045470464534 0 0)
(0.02008236992825536 0 0)
(0.03649766683341622 0 0)
(0.05538046784869449 0 0)
(0.07333639790191386 0 0)
(0.0977197388031991 0 0)
(0.1030335813045516 0 0)
(0.1030369606456124 0 0)
(0.103003584485592 0 0)
(0.1024054109535579 0 0)
(0.1018163437013759 0 0)
(0.1008218049806631 0 0)
(0.09806483012258493 0 0)
(0.09546906838758037 0 0)
(0.09314825542419732 0 0)
(0.08604883924101075 0 0)
(0.08167735468740825 0 0)
(0.07448633877745021 0 0)
(0.06430810169610306 0 0)
(0.05626107131946641 0 0)
(0.04316576892960008 0 0)
(0.03044886756115708 0 0)
(0.01691780793384567 0 0)
(-0.0003601253391655011 0 0)
(-0.0163800043400237 0 0)
(-0.03462070822087278 0 0)
(-0.05411143621119792 0 0)
(-0.07195130873845032 0 0)
(-0.09771541012893732 0 0)
(-0.1024020858073618 0 0)
(-0.1025177538216652 0 0)
(-0.102401112091053 0 0)
(-0.1019569251327551 0 0)
(-0.1009185366453806 0 0)
(-0.1000471931527923 0 0)
(-0.09748191832481297 0 0)
(-0.09503395035967635 0 0)
(-0.09152625905161817 0 0)
(-0.0861687947431841 0 0)
(-0.08112055240709651 0 0)
(-0.07332289591338603 0 0)
(-0.06524806752511908 0 0)
(-0.05567129255954152 0 0)
(-0.0440130010174969 0 0)
(-0.03221358671489256 0 0)
(-0.01807488235883215 0 0)
(-0.00316607794364591 0 0)
(0.01274917413208509 0 0)
(0.030095555090316 0 0)
(0.04792495214095059 0 0)
(0.0650188799475499 0 0)
(0.08871321204792953 0 0)
(0.1013204074046049 0 0)
(0.1014379705297412 0 0)
(0.1015142173591502 0 0)
(0.1012363898955162 0 0)
(0.1006069805009775 0 0)
(0.09959693678604659 0 0)
(0.0979388960397584 0 0)
(0.09545847970599389 0 0)
(0.09208154380628349 0 0)
(0.0878953020653626 0 0)
(0.0821867741931679 0 0)
(0.07564156838808707 0 0)
(0.06771759002583765 0 0)
(0.05802556364406875 0 0)
(0.04764361820632429 0 0)
(0.03509472179286586 0 0)
(0.02129280379394974 0 0)
(0.006691585649495512 0 0)
(-0.01017550969227952 0 0)
(-0.0274232190524698 0 0)
(-0.0457067672203925 0 0)
(-0.0637483026174622 0 0)
(-0.08805034033525569 0 0)
(-0.1009786897772117 0 0)
(-0.1011901078798674 0 0)
(-0.1009675386030649 0 0)
(-0.1009096237591784 0 0)
(-0.1001611970854043 0 0)
(-0.09886103290703176 0 0)
(-0.09783869478233763 0 0)
(-0.09449034136517549 0 0)
(-0.09156616686045022 0 0)
(-0.08764469438164256 0 0)
(-0.08129798716423325 0 0)
(-0.07565094084561683 0 0)
(-0.06740566102296912 0 0)
(-0.05819835528033469 0 0)
(-0.0482433030222128 0 0)
(-0.03579187210908433 0 0)
(-0.02330652326875376 0 0)
(-0.008445155685574739 0 0)
(0.006983157480364804 0 0)
(0.02331825683119829 0 0)
(0.04116528218709259 0 0)
(0.05826115570357142 0 0)
(0.07775000917839014 0 0)
(0.09836314072010621 0 0)
(0.1003797843235468 0 0)
(0.1003347040864418 0 0)
(0.09988707701508048 0 0)
(0.09986726713398937 0 0)
(0.09844441685799159 0 0)
(0.09688035883289284 0 0)
(0.09568923647318543 0 0)
(0.09123214953166935 0 0)
(0.08856586396197687 0 0)
(0.08369571643235582 0 0)
(0.07614657855650819 0 0)
(0.07076836089208763 0 0)
(0.06054778315275039 0 0)
(0.05064253804428704 0 0)
(0.04026207960120206 0 0)
(0.02532842772465582 0 0)
(0.01237949419632584 0 0)
(-0.003471693989984153 0 0)
(-0.02142645669799531 0 0)
(-0.03799049271687054 0 0)
(-0.05669201094261198 0 0)
(-0.07717599473772706 0 0)
(-0.09772469298883668 0 0)
(-0.09990575297352532 0 0)
(-0.1000557795243455 0 0)
(-0.09936380820083747 0 0)
(-0.09927650519405871 0 0)
(-0.0986129362353384 0 0)
(-0.09627109429883536 0 0)
(-0.09509473246468493 0 0)
(-0.09188668011328323 0 0)
(-0.08694087579101996 0 0)
(-0.08386518266340638 0 0)
(-0.07669705732302501 0 0)
(-0.06874277925247291 0 0)
(-0.06199293094617122 0 0)
(-0.05051677514891616 0 0)
(-0.03990280513361295 0 0)
(-0.02796227502639874 0 0)
(-0.01338984108847642 0 0)
(0.0006592174765065727 0 0)
(0.01694806971344245 0 0)
(0.03364561221961154 0 0)
(0.05100884302716174 0 0)
(0.06779659091765522 0 0)
(0.09181121148689939 0 0)
(0.09893106810357995 0 0)
(0.09900816899459293 0 0)
(0.09899683481570258 0 0)
(0.09830429823716377 0 0)
(0.09827363385596771 0 0)
(0.0965394706681368 0 0)
(0.09439709559730085 0 0)
(0.09314982333332225 0 0)
(0.08798080707069025 0 0)
(0.08439494412389273 0 0)
(0.07946930328500325 0 0)
(0.07070895671687151 0 0)
(0.064544942274999 0 0)
(0.05409570492513129 0 0)
(0.04265884660203446 0 0)
(0.03183246482388249 0 0)
(0.01650722965357109 0 0)
(0.002357875681481669 0 0)
(-0.01381706131199617 0 0)
(-0.0317287664300488 0 0)
(-0.04905851208113 0 0)
(-0.06681886581881553 0 0)
(-0.09170820580100675 0 0)
(-0.09830668084268314 0 0)
(-0.09843090262183848 0 0)
(-0.09849540706391435 0 0)
(-0.09803464800779157 0 0)
(-0.09692716371581377 0 0)
(-0.09659062025751536 0 0)
(-0.09417381536472619 0 0)
(-0.09117087531574143 0 0)
(-0.08918020057277758 0 0)
(-0.08330802907614299 0 0)
(-0.07803492354070804 0 0)
(-0.07210239700318313 0 0)
(-0.06310445267573157 0 0)
(-0.05472813037283718 0 0)
(-0.04395368088028904 0 0)
(-0.03196383106978391 0 0)
(-0.01927559710664607 0 0)
(-0.004707891162400805 0 0)
(0.010603386847513 0 0)
(0.02683729794541588 0 0)
(0.04399040324543832 0 0)
(0.06052877131872403 0 0)
(0.08213076918623809 0 0)
(0.09673525414551691 0 0)
(0.09779666735868565 0 0)
(0.09774772711006477 0 0)
(0.09724592970224495 0 0)
(0.09739067929967082 0 0)
(0.09546534216474897 0 0)
(0.09437363318121808 0 0)
(0.09269600629350892 0 0)
(0.08799140333630166 0 0)
(0.08565567858575843 0 0)
(0.07977711319080789 0 0)
(0.0728793698315537 0 0)
(0.06672536436162692 0 0)
(0.05674365800973611 0 0)
(0.04683854074020007 0 0)
(0.03546242418570776 0 0)
(0.0220697342661339 0 0)
(0.00782150424527359 0 0)
(-0.007882470944934879 0 0)
(-0.02435273317578326 0 0)
(-0.04240003491089715 0 0)
(-0.05919439816462078 0 0)
(-0.08204249120760336 0 0)
(-0.09667752119936854 0 0)
(-0.0972009430583797 0 0)
(-0.09722509748861535 0 0)
(-0.09667379165588746 0 0)
(-0.09654688168586656 0 0)
(-0.09552639312685349 0 0)
(-0.09328356594468674 0 0)
(-0.09218744050498008 0 0)
(-0.0881854501986549 0 0)
(-0.084059945191262 0 0)
(-0.08027562532846844 0 0)
(-0.07229757862505369 0 0)
(-0.06598422814800554 0 0)
(-0.05773821258396724 0 0)
(-0.04608870071866849 0 0)
(-0.03650972641691591 0 0)
(-0.0235497597845409 0 0)
(-0.009176598806902098 0 0)
(0.004393095872164175 0 0)
(0.02103654082464101 0 0)
(0.0372196423677119 0 0)
(0.05391261166947417 0 0)
(0.07150609229481916 0 0)
(0.09293847933484058 0 0)
(0.09656252706698283 0 0)
(0.09648462827441115 0 0)
(0.09640892391454772 0 0)
(0.09608481655710674 0 0)
(0.09457653388083033 0 0)
(0.09435846012229422 0 0)
(0.09182313556935005 0 0)
(0.08841242912896942 0 0)
(0.0863132009601545 0 0)
(0.08023477929112316 0 0)
(0.07501087394019104 0 0)
(0.0681093194983437 0 0)
(0.05933257711747025 0 0)
(0.05067075336013311 0 0)
(0.03840097140113502 0 0)
(0.02677564508563447 0 0)
(0.01334650365533085 0 0)
(-0.002604609927880458 0 0)
(-0.0178940511519574 0 0)
(-0.03502538075312774 0 0)
(-0.05288440914070254 0 0)
(-0.07075914206853344 0 0)
(-0.09310830184269048 0 0)
(-0.09557271001371019 0 0)
(-0.09543907676008265 0 0)
(-0.09555644417342472 0 0)
(-0.09511785044714123 0 0)
(-0.09391056081651643 0 0)
(-0.09341399623062369 0 0)
(-0.09083542324484503 0 0)
(-0.0877390146072194 0 0)
(-0.08596106526719605 0 0)
(-0.07942680028158734 0 0)
(-0.07447237164447602 0 0)
(-0.06841974916942661 0 0)
(-0.05910265095965397 0 0)
(-0.05085892096694855 0 0)
(-0.03988613991670328 0 0)
(-0.02799903235264325 0 0)
(-0.01534117086252045 0 0)
(-0.0007883625054818349 0 0)
(0.01412715000711481 0 0)
(0.03019858282737127 0 0)
(0.04705887673386108 0 0)
(0.06281214402209478 0 0)
(0.08512931905808549 0 0)
(0.09536699730645523 0 0)
(0.09551568003464381 0 0)
(0.09537198463826378 0 0)
(0.09498953225775009 0 0)
(0.09493483610889974 0 0)
(0.09276377520033011 0 0)
(0.09150548851610731 0 0)
(0.08992604699113006 0 0)
(0.08475068458713411 0 0)
(0.08221942990842464 0 0)
(0.07641006114445688 0 0)
(0.06901410156393642 0 0)
(0.06286799515614772 0 0)
(0.05247617580205449 0 0)
(0.04259281444695041 0 0)
(0.03128720947922466 0 0)
(0.01733453572529066 0 0)
(0.003882803397529297 0 0)
(-0.01207918676282351 0 0)
(-0.0283808614459943 0 0)
(-0.04552769771009522 0 0)
(-0.0621592109235863 0 0)
(-0.08568697152630735 0 0)
(-0.09464806820581702 0 0)
(-0.09465916987861675 0 0)
(-0.09501324702026938 0 0)
(-0.09433376167526827 0 0)
(-0.09366039670493083 0 0)
(-0.09290907921263639 0 0)
(-0.09068573356470631 0 0)
(-0.08859274378394773 0 0)
(-0.08501303175438482 0 0)
(-0.0808838204624107 0 0)
(-0.07593014401439793 0 0)
(-0.0690594605538717 0 0)
(-0.06213016650395491 0 0)
(-0.05305362473978065 0 0)
(-0.04300129878100087 0 0)
(-0.03225865457565014 0 0)
(-0.01906690219015124 0 0)
(-0.006145600841122768 0 0)
(0.008654903218196468 0 0)
(0.02453171563038508 0 0)
(0.04002397670859168 0 0)
(0.05668751481698225 0 0)
(0.07525250705728344 0 0)
(0.09277085245258221 0 0)
(0.09405013930320064 0 0)
(0.09410619334191199 0 0)
(0.09365946590689143 0 0)
(0.09332133551636441 0 0)
(0.0927872443981765 0 0)
(0.09036628917302288 0 0)
(0.08916663048796336 0 0)
(0.08602118322428937 0 0)
(0.08112045282139051 0 0)
(0.07857042706308984 0 0)
(0.07094465047768223 0 0)
(0.06342441204440726 0 0)
(0.05710206490988484 0 0)
(0.04514962400178436 0 0)
(0.03509607529969407 0 0)
(0.02307629678362794 0 0)
(0.008234468603154205 0 0)
(-0.005463279156747013 0 0)
(-0.02202497663636894 0 0)
(-0.03886816605596154 0 0)
(-0.05493026871381444 0 0)
(-0.07564910695977889 0 0)
(-0.09258577950394793 0 0)
(-0.09336698833893173 0 0)
(-0.09342018240571162 0 0)
(-0.0930403255153467 0 0)
(-0.09284981528014856 0 0)
(-0.09170611576341432 0 0)
(-0.09029831997010068 0 0)
(-0.08845613266955263 0 0)
(-0.08499992931677376 0 0)
(-0.08208515820282712 0 0)
(-0.07671428425106563 0 0)
(-0.0706684244217375 0 0)
(-0.06474001193314702 0 0)
(-0.05514543761850901 0 0)
(-0.04646893840508472 0 0)
(-0.03615564484400341 0 0)
(-0.02347608740610872 0 0)
(-0.01124645656714498 0 0)
(0.003054956990977571 0 0)
(0.01814986350147325 0 0)
(0.03361232073923017 0 0)
(0.05039414505916062 0 0)
(0.06576051977416661 0 0)
(0.08844123411755338 0 0)
(0.09488110379752605 0 0)
(0.09492041112472202 0 0)
(0.09508956185173749 0 0)
(0.09450205915606412 0 0)
(0.0941455583683469 0 0)
(0.09346379179914226 0 0)
(0.09152657569211987 0 0)
(0.09025408983815629 0 0)
(0.08724554170234325 0 0)
(0.0838200870839062 0 0)
(0.08024046324497593 0 0)
(0.0746665272073546 0 0)
(0.06928631898870281 0 0)
(0.06249086607184685 0 0)
(0.05485611177051969 0 0)
(0.04676265671628429 0 0)
(0.03752829022992812 0 0)
(0.02801479260416359 0 0)
(0.01876619246374798 0 0)
(0.005527468249597047 0 0)
(6.316993826095564e-05 0 0)
(6.070507938671023e-10 0 0)
(-1.124303481027496e-11 0 0)
(-1.035420685313863e-11 0 0)
(-1.153219813355167e-11 0 0)
(-1.056308654585229e-11 0 0)
(-8.003302947983358e-12 0 0)
(-9.381922596561674e-12 0 0)
(-7.557783505027467e-12 0 0)
(-5.098596967670947e-12 0 0)
(-4.863440579280347e-12 0 0)
(-3.060202537320398e-12 0 0)
(-2.379688520039481e-12 0 0)
(-6.536055708723728e-13 0 0)
(-3.646370605965083e-13 0 0)
(-7.345539511054947e-13 0 0)
(-5.739425588701061e-13 0 0)
(-3.911777477678378e-13 0 0)
(-3.923343008714993e-13 0 0)
(-6.275896860717676e-13 0 0)
(-6.28614243427545e-13 0 0)
(-7.837446315082689e-14 0 0)
(-9.41252533359824e-13 0 0)
(-2.343298246554248e-13 0 0)
(-2.638781860201575e-13 0 0)
(-8.342552693891196e-13 0 0)
(-7.850645889865704e-14 0 0)
(-4.706427661484275e-13 0 0)
(-7.843716113103273e-13 0 0)
(-2.638781860201563e-13 0 0)
(-3.634145096190427e-13 0 0)
(-5.527476994851014e-13 0 0)
(-5.465753079647452e-13 0 0)
(-3.126382899322661e-13 0 0)
(-2.86262597445677e-13 0 0)
(-5.776730290560648e-13 0 0)
(-1.568809220494549e-13 0 0)
(-3.137618440989531e-13 0 0)
(-1.046233681555935e-12 0 0)
(1.059727066149413e-13 0 0)
(-4.742742395234335e-13 0 0)
(-5.74041555681009e-13 0 0)
(2.852380400897784e-14 0 0)
(-8.639356265017201e-13 0 0)
(-3.636125032407753e-13 0 0)
(-1.570789156711921e-13 0 0)
(-6.550229348511285e-13 0 0)
(7.583354500546824e-14 0 0)
(-7.295051137516919e-13 0 0)
(-1.648356537436688e-15 0 0)
(-3.907189432709918e-13 0 0)
(-4.982410096125137e-13 0 0)
(-3.399427235842529e-13 0 0)
(-3.923013019345489e-13 0 0)
(-5.206914189119305e-13 0 0)
(-2.629526254752811e-13 0 0)
(-6.311881605098269e-13 0 0)
(2.37631308660917e-13 0 0)
(-3.404015280811548e-13 0 0)
(-5.216829773307547e-13 0 0)
(-3.140588345315285e-13 0 0)
(-5.104021118232764e-14 0 0)
(-1.846441601983457e-13 0 0)
(-4.719643139367212e-13 0 0)
(2.885395240954488e-13 0 0)
(-4.225724592917717e-13 0 0)
(-1.286211095360856e-13 0 0)
(-4.435395067386239e-13 0 0)
(7.811047165519749e-14 0 0)
(-3.926312913040049e-13 0 0)
(-3.141248324054225e-13 0 0)
(-1.063356949214074e-13 0 0)
(-4.44597063031351e-13 0 0)
(-5.2798299122509e-16 0 0)
(-3.925322944932236e-13 0 0)
(-6.267631223377496e-13 0 0)
(2.33636846979435e-13 0 0)
(-5.99428870369191e-13 0 0)
(-2.631506190969715e-13 0 0)
(-3.429126279100155e-13 0 0)
(-2.580357838692897e-13 0 0)
(-4.997935499594944e-13 0 0)
(-2.071935663086137e-13 0 0)
(-6.554849199684572e-13 0 0)
(-7.900144295293006e-14 0 0)
(-7.880344933123952e-14 0 0)
(-3.142238292162378e-13 0 0)
(-1.57408905040735e-13 0 0)
(-2.357173703176267e-13 0 0)
(-3.927632870518788e-13 0 0)
(-3.441979961409814e-13 0 0)
(-3.35058880915235e-13 0 0)
(-2.918724167277104e-13 0 0)
(-1.286541084730456e-13 0 0)
(-3.651980425247218e-13 0 0)
(-2.633486127186499e-13 0 0)
(-7.85724567725616e-14 0 0)
(-4.228364507874506e-13 0 0)
(-4.409655896562727e-13 0 0)
(-1.572109114189474e-13 0 0)
(-2.357833681915756e-13 0 0)
(-4.225394603548576e-13 0 0)
(-6.764849663521309e-13 0 0)
(-2.356843713806901e-13 0 0)
(-3.925982923670758e-13 0 0)
(-4.720963096845939e-13 0 0)
(-5.758549069031691e-13 0 0)
(-2.867575814999505e-13 0 0)
(-3.17591311095735e-13 0 0)
(-4.675392757645773e-13 0 0)
(-7.880344933121356e-14 0 0)
(-3.92631291304073e-13 0 0)
(-1.572109114190087e-13 0 0)
(-5.494462154796293e-13 0 0)
(-3.650330478399924e-13 0 0)
(-2.357503692545737e-13 0 0)
(-4.475307877996616e-13 0 0)
(-3.686975201519509e-13 0 0)
(-1.811116836341587e-13 0 0)
(-5.230375240560443e-13 0 0)
(-3.141248324054135e-13 0 0)
(-5.20757416785826e-13 0 0)
(-4.200975390203837e-13 0 0)
(-3.141578313423356e-13 0 0)
(-3.139928366576399e-13 0 0)
(-4.985380000450325e-13 0 0)
(-3.165667537399648e-13 0 0)
(-9.900818157662723e-13 0 0)
(-7.880344933120504e-14 0 0)
(-5.494132165427051e-13 0 0)
(-6.002554341033059e-13 0 0)
(-3.925652934301214e-13 0 0)
(-2.905838678762945e-13 0 0)
(-3.425166406666392e-13 0 0)
(-4.152136963512962e-13 0 0)
(-6.785968983171765e-13 0 0)
(-4.200315411464112e-13 0 0)
(-2.354863777590089e-13 0 0)
(-3.925982923671059e-13 0 0)
(-7.061291439073612e-13 0 0)
(-1.571449135451511e-13 0 0)
(-2.614692636225356e-13 0 0)
(-3.976141307839678e-13 0 0)
(-3.102623664717539e-13 0 0)
(-5.501737824027546e-13 0 0)
(-3.649670499660564e-13 0 0)
(9.915584187655857e-16 0 0)
(-3.923013019345558e-13 0 0)
(-4.718323181888649e-13 0 0)
(7.840746208776631e-14 0 0)
(-1.048821513852811e-13 0 0)
(-3.149513961394657e-13 0 0)
(-3.636125032407815e-13 0 0)
(-7.844046102474141e-14 0 0)
(-3.148523993286045e-13 0 0)
(-2.753224559021857e-14 0 0)
(-4.695522109187139e-13 0 0)
(2.746624771626114e-14 0 0)
(-2.638781860201843e-13 0 0)
(-2.342968257184345e-13 0 0)
(-1.295466700810262e-13 0 0)
(-1.649946847663079e-16 0 0)
(-1.570129177972997e-13 0 0)
)
;

boundaryField
{
    inlet
    {
        type            zeroGradient;
    }
    outlet
    {
        type            pressureInletOutletVelocity;
        value           uniform (-1.570129177972997e-13 0 0);
    }
    frontAndBack
    {
        type            empty;
    }
}


// ************************************************************************* //
