/*--------------------------------*- C++ -*----------------------------------*\
| =========                 |                                                 |
| \\      /  F ield         | OpenFOAM: The Open Source CFD Toolbox           |
|  \\    /   O peration     | Version:  v2012                                 |
|   \\  /    A nd           | Website:  www.openfoam.com                      |
|    \\/     M anipulation  |                                                 |
\*---------------------------------------------------------------------------*/
FoamFile
{
    version     2.0;
    format      ascii;
    class       volScalarField;
    location    "0.017";
    object      p;
}
// * * * * * * * * * * * * * * * * * * * * * * * * * * * * * * * * * * * * * //

dimensions      [1 -1 -2 0 0 0 0];


internalField   nonuniform List<scalar> 
1000
(
101124.2504187103
102200.1112936089
102045.7965588856
101036.1372216546
99787.89864512962
98686.80186880741
98065.31820339402
98558.84012735805
100294.1904732213
101866.2664792601
104212.9194908126
105298.2329808638
104892.7326112401
103312.1137721031
102256.1636547259
100423.2493256522
99376.28113762633
99196.07326443015
99803.05557193434
99904.58065609494
100739.0615378577
101263.9980708162
101100.3867551701
101130.2490892739
100791.6272871876
100779.7391182182
101417.7018516128
102648.6143304473
103312.9934082307
104523.2519322369
104388.8394635486
102805.8248753625
100751.6159884162
99404.66553397526
98104.18522451007
97748.79959785026
98302.24217096411
99510.79901418182
100589.5939379837
102939.3859966682
104290.0293913343
104550.701003909
104700.1019507928
104203.0091987227
103361.9773838468
102772.8090407849
101344.4609820034
100241.9072302957
98635.63383658527
97890.8081645925
97859.30147028655
98002.96484615289
98295.12696492634
99341.1508288255
101088.671102239
102563.4588009573
104532.7348191371
105892.3035610736
105709.6972300549
104022.7340072238
102347.8058415122
100492.8965890102
99161.29319741022
98704.70218835783
99077.50095370643
99485.56877486003
100177.7875506879
100966.289280883
101287.4365653888
101040.1454583779
101011.7106781975
100862.4651948339
101238.826796616
102087.1523628485
102872.1179905288
103916.0377486851
104186.1854782416
103010.8751267103
100770.2834609545
99793.02945176658
98241.86480146482
97504.26308825699
97747.8469044142
98823.90263558351
100106.3368619289
102411.8727989049
104439.6755814316
105028.0899375385
105462.3577341701
105038.3013452265
103772.5273506093
102551.9110304429
100492.1709078852
99018.48173424194
97777.72287585174
97718.52435167358
98302.06103544349
99548.31245095501
100135.609499074
100916.735010838
101526.9232848604
101916.2766063841
102062.0484215199
102583.174563466
103450.3417465567
103822.11159507
103214.4834349021
102678.6088697409
102035.4074907697
101254.2994097137
100384.3551638676
99804.34404276087
99005.2151391654
98518.71078212195
98669.94851756911
99749.96120718298
100926.4809829861
102364.4265330347
102852.04654719
103142.2173765483
103200.7996171527
102665.2295334904
102330.6823187965
101282.5366854023
100013.9248509133
99326.75869586063
99415.74721839963
99125.69819259847
99386.13602284582
99979.05667365041
100831.3909158267
101128.9867680072
102477.2997682147
104064.4300801215
104627.2211622497
104305.7380632598
104231.3194929213
103675.8325016313
102579.7873285514
101233.1976295365
99446.54989545982
97824.62038132611
96582.25993540236
96498.48589916769
97115.64994538382
98025.75536304082
99239.63250550661
101118.1149662228
102803.6416065956
104919.5834790222
106416.2336483588
106282.662076077
104425.604523967
102326.2900520943
100657.5912112786
99080.3406811178
98377.32192065309
98596.51083088726
99458.65817598323
99772.94299653989
101149.5187041105
102270.3801323452
102279.6437996337
102166.2607043941
101560.2799344844
101129.7143385825
101093.3615445406
101425.603744903
101442.3289662363
101754.6989629195
101403.5145251989
100565.6268795477
100254.1731889941
99511.75829477132
99156.02857415803
99352.70621383774
100132.8279795431
101376.4109329939
102774.7238447383
104747.2355111445
105414.958537583
104358.9585867487
102957.8098199709
101449.7930857966
100127.4959598456
99461.3375530695
99468.81970531422
99282.10174456882
99751.55747202974
100163.8874713397
100297.6595672892
100109.6510503531
100242.9975217929
99968.39673035312
99976.74232150272
100476.6074025781
101748.8237402
102321.6726417799
104110.8885403976
104725.3487536139
103731.5390540882
102022.8390901319
101212.6583618673
99856.65140735784
98817.87614682934
98576.61841934352
98889.85584937074
98960.7330132386
99926.01671724611
101622.9773221251
102632.7669304284
103705.5817727834
103898.3452820008
103660.4084983677
102958.3147616289
101690.7956119862
100400.1577178469
99031.22477258148
98401.56463879922
98496.79843289446
98199.89092351451
98478.9569562731
99422.17775449346
100945.743414747
101895.472390946
104502.2522864074
106052.1697432679
105753.4520968619
104125.6294403707
102970.383258619
101258.7288067031
100183.6091207463
99654.6387435744
99125.90395067327
98784.00929365895
98703.66655610871
98792.41783906815
98993.63833637511
99443.07789275107
99462.1446683176
99766.34109100743
100484.898256099
101707.689942736
102873.8267411091
104995.5249090437
105830.275727879
104856.694094834
103162.5919812173
102355.3265876066
100809.6007414582
99172.76091368678
98218.30502791285
98143.59683689415
97889.23714084744
98557.73159110532
101180.4832229099
104383.4282663096
105967.6934366976
107311.0320641522
107429.8273920932
106693.0430271607
104432.6082444694
101187.319326775
97767.73829421154
94953.86931850751
93208.64178210229
93141.88638745112
94954.52623218831
99196.74539174139
104751.915394425
108027.8349358122
109041.3069515921
107731.2238337443
104520.0677354097
100353.304147132
96890.49126585529
95230.11809331045
95479.2465943823
96874.39697811354
100451.1705237969
103967.0991040804
104817.491915639
103406.6270499093
102288.6579689344
99777.15131778143
97872.20271897475
97072.1904471953
97558.82897205539
99475.81842308694
102550.6171519439
107109.2032285322
108864.2284679032
107617.2465487621
104819.5568708611
102688.1216821916
100160.5403044727
98611.16710648962
97716.35305144891
97037.90259947887
96135.5807230741
95705.81736675333
96755.84684560314
99541.54350962184
101665.6895883965
103399.323376584
103744.221500726
103331.8595454831
102115.4110318098
100290.0092469915
98651.0050105246
98036.17216754681
98575.68204726017
99701.08645019587
100379.9246863685
100704.5967084401
100717.0083978868
100799.5534748207
101155.2851267418
101948.4631475807
103740.7243864113
104863.9656381046
104169.2995254662
104477.0173563466
103783.0616258851
102884.6907195305
101580.3881554873
99517.3036026762
97316.98131986416
95672.17235381639
95393.50984555646
96396.95751105476
97868.80524636405
98990.82787755379
99676.32841731657
100571.3783800219
102387.6475979672
104203.6123734669
107427.0815134726
108560.4094637833
106561.9410157038
102316.7052763207
100030.8218454176
97310.11350843216
95868.63399837184
95501.14239210986
96349.97571538786
97809.31542824002
100812.1855189878
104947.8722931068
106808.3527287585
108165.5692465357
107601.6771790556
105418.7387407192
102170.0863850458
98217.49632933768
94401.36296792526
92296.68909154751
92746.15623139971
95030.20000433605
98005.2679324995
100565.0997038968
102067.8707179888
102852.6994932737
103049.3027625083
103606.4818845819
103704.0843411517
104927.4831067405
103997.5128954156
101609.8277734861
100047.0993303605
99638.1862251813
99215.28611543363
99221.63238584342
99284.66462900012
99468.64618387498
100388.4193941904
102150.5157436263
104323.9663602699
106271.5369854494
105332.8898435022
101551.5207593439
98015.7621642935
96382.83411261195
95781.04769722758
96459.94835921103
98093.51503789793
100496.8783295153
103255.1757183474
105324.8346647036
106086.7391763557
105096.6104383014
102661.4041103053
98788.41326751183
95884.03561329884
95998.4034778121
97333.9113730558
99597.94664351485
101245.8275983287
102825.2467498442
103739.5781329893
103808.7418752502
103749.8831619688
103209.1196438775
102779.6351307236
101156.5293232611
99741.39627907505
99272.92028638719
99096.73404214218
98802.28725906658
99101.06981311484
100009.8451336256
101618.9459888324
102447.8348471657
104692.521837671
105545.9214799131
104309.034519787
101555.6563078488
100390.8901962864
98810.58005152857
98345.36078338443
98665.84815265228
99832.81565037659
101437.3512394638
102731.7070114087
103345.5245022433
102293.3829672423
99869.49332843772
98559.7139856298
97370.89459390311
97544.9948242189
99118.3141026417
101594.039221557
104203.6274179033
105564.1742885566
105169.7372974236
102846.7015012953
100465.3482941344
97977.01576427186
96908.52597959142
97211.80961923026
98929.90439741315
101222.2808561062
103937.8505337829
105045.0992024
104234.9996762935
101902.3871273834
99929.61193096155
98441.47552409441
98252.39196290742
99278.71623007304
101140.8640135392
102645.081732152
103585.1699094367
103150.5036922888
101249.0387707524
99319.02206918481
97473.95339140041
97241.45964726925
98527.68502930473
101282.7318018527
104487.8358617946
106237.9522135642
105930.6035420608
104137.5562531709
101792.5711299183
98905.37025414196
97681.60330836472
97765.79070226307
98725.49443405621
99712.63609725768
101332.3594675525
101995.3438817053
101585.5297138495
101418.5603407808
100823.3230344553
100099.5486026995
99709.81811495301
99299.80920434362
99664.55931958529
100756.5725234897
101762.9693239142
102839.2246540115
102975.13474482
102726.255749569
101889.6346703126
100934.9267576044
99163.76892191083
98015.27827468929
97581.38949949139
98476.42741454797
99940.1878479232
101955.8722798525
102815.5391628326
103397.3791712582
103490.8993105641
103000.3439771635
102270.4603984442
100877.0012698604
99538.76890234073
99128.46965145705
98341.6476186402
98077.72417560576
98528.72524244916
99711.7115402135
100516.9870818311
103481.6266503357
105661.1882778404
105663.4764306913
104637.3276775404
103805.6170389639
102418.6639871264
100677.0798967329
99399.28604492634
98663.17379832822
97530.03114947659
97078.74781970379
97866.63823898727
100959.5401374916
103046.4001224632
104578.3488543345
104622.9753136173
102884.5495725356
100212.7494366468
97507.6778127633
95800.71639138783
95713.54049339888
97370.11192998
100475.1717558814
103390.4429205131
105246.0725878692
105023.6896304264
103134.9562474679
100458.4875916081
97890.21390250284
96165.6791420214
96177.06809456697
97829.71853003086
100223.893653865
102399.1182374578
103674.6208447166
103590.5293463471
102596.368768984
101118.7123365074
99997.49450478729
99214.59356085173
99218.51097186729
99938.38172521227
100448.782381587
100867.1376700197
100899.1796040193
100708.6385361725
100552.7429385885
100851.2200305564
101447.7314708275
101681.5225029356
101395.2406308013
101790.3499384408
101610.8292426616
101640.490330669
101546.9394815015
101292.8621521251
101016.2097622611
99988.39553530731
99493.37979802077
98970.77499619698
98701.00928790399
98941.25401670052
99222.09689414175
99526.81556512657
99943.03341746712
100501.2364837293
100959.9582486264
102199.5645029086
103160.2075694449
102867.4618646267
101675.1551847424
101311.1341392861
100527.4604450402
100228.2851733447
100138.4007576869
100001.5290017203
100045.9445766551
99918.33246979117
99924.14425709269
100646.4732264312
101551.7279758602
101986.3474696002
102164.42501875
102793.6435142554
102969.0783385084
103275.5772508973
103238.1705156278
102670.4558944134
101682.0849076117
99087.04715109899
96795.09707520631
95032.84355451551
95983.89286691204
99784.17681350809
102883.1190197062
105629.5885722671
106841.2856078777
107129.7856879761
105753.7684931533
103219.786633617
99693.37257854473
96120.07804900045
93620.76057489388
92849.62834643543
94448.33004682363
98248.90223607991
103236.1082707847
105920.2004963079
105775.9385003017
104288.010647232
101684.6851072816
98829.53109423662
97340.35785447828
96841.65010959878
96065.33401260078
96453.73602304512
98048.13477084464
100394.6323702581
101573.6891853585
102558.1559997033
102386.3045832654
102201.7895156962
101787.6423942458
101187.0995455237
99270.75059449035
97555.59222193241
95738.70130324237
95385.32919422146
96620.85625714051
98832.4658544547
101166.5704072641
103058.9597716557
104974.2019059786
106031.2321537715
105894.0178558654
104768.8477876929
101436.3852268467
97451.31620437448
94614.70307739038
93202.85616144212
93865.84252012668
96820.39209533208
101463.0681573946
106747.0701153985
109039.3481590243
107927.5010231309
104269.8985457633
101321.0694243368
98677.81533961189
97558.28772163612
97472.67302853013
97700.05763047685
97879.64740074816
98581.69765677312
97961.30501805933
98955.08977060784
99416.77761303484
99247.46223876048
98642.11137331309
99178.40416355339
98902.40856640362
99148.9119016053
99520.68785404258
99910.35537320159
100901.1786188379
100878.6401691018
101895.0073382059
101132.8699293798
98801.10991337815
96871.57671338686
95745.53048798669
95365.38943571242
96246.39415940423
98381.98955810946
101287.7324705809
104241.7079221172
106406.440086752
106209.7740682826
103300.7966602064
99837.85297462803
97204.19970340149
95694.03555953824
95556.55987882175
96526.43510669665
98821.75711614983
100430.1291790386
103663.1770908516
104870.5530239187
103500.5077807191
100912.1538895928
99061.59465269474
97693.30345309783
97316.04940383109
97599.65076534267
98311.09915479395
98462.4027729848
99079.84235378624
99418.53953059917
99640.68342819177
100519.431077084
101334.3418769167
101795.1123891368
101446.0969196777
100144.2089605806
97933.05741670491
95788.53562825851
94591.86472549404
95514.7790374351
97950.0288080927
101479.2627954379
104178.4762211749
104789.1649105205
103099.220229571
100757.0679687142
98141.15720926142
96728.92170494799
96478.65337939614
97314.17947586563
98460.77067385396
100414.6703301646
102152.8829829177
102326.8931265419
101319.3667405293
101020.5144993167
100346.0511834261
99570.54607034996
98804.45810201544
97931.22150399727
96795.69004154066
96605.77644788919
98354.37538311552
101052.914554641
103291.8832939421
104548.4196029997
104190.8517144001
101883.1454961597
98641.1697930809
95711.66814600769
94142.97445455607
94308.02174475499
96198.912769961
99392.99984857219
103533.8987036706
104937.0081024115
103554.786160555
101589.1975324228
99627.97963969391
98096.10288642316
97151.54956738386
96747.93523695847
96872.69160017579
97219.52770460625
97869.41353926032
99766.73763358989
101599.9443238735
101640.200412025
100766.9663313962
100211.8231295384
99221.23480928905
98196.86153479396
97174.34351107199
96293.690659724
95871.27762516336
96562.05669128308
97181.89431732683
99696.21128687097
101386.7052288728
100818.1969057729
98707.75313242775
98558.4537001133
97468.3776198721
97524.51258416026
97938.06360732917
98490.20654669528
99356.38517025446
99080.52078174766
99754.46341440285
99111.49363303561
97675.56074575929
96688.56019628829
96628.65285606844
96724.31169869522
97680.6744563557
98958.74833971831
99955.56516337254
101039.6215978508
101132.640171687
99910.75439459279
98402.13971735416
97696.2668901037
96900.27229216883
96660.18817498542
97012.80765289163
96811.8743208948
97465.58206147628
98530.64487039016
99143.55937985855
99756.75900313549
99584.71330448822
98539.92776181888
97188.37494467573
95909.21788853753
95539.72992509772
96290.44929854885
97768.85645837507
99336.29410678131
100527.4393090374
100491.2924124546
99284.02191202948
96929.1918025873
94571.0180074799
93687.84234749454
94942.20344846699
97006.66631279049
99162.65620888564
100556.2504125878
101557.0973939184
101599.5472768083
100828.2354991192
98351.29697388933
95921.93719358408
94103.98973296456
94474.36405576706
95980.31972109544
98702.85071831271
100290.9086788677
101909.4102388538
102505.1378937012
102250.9053003559
100158.9431974503
97077.85186783651
93504.9950160632
92179.48668097022
93684.35581714513
96592.24265205706
100506.3472227671
102918.4812289426
104077.6356297011
103992.0645966141
101897.3885653943
98565.03417674579
94310.10180312408
91611.96110307456
90388.18517714973
91693.15274949699
95349.00969376603
99387.61672975012
103239.4795652032
104465.8942884892
102191.824520139
97633.33213080646
93432.10998014901
91125.92971869977
90310.88404461193
91540.51653279185
94399.82530303113
98771.22375265753
102523.6931398137
104726.9854688267
104937.2802434433
101953.2153838477
96720.88296434251
91865.14728845375
90397.25829923025
91234.02130910236
93663.11757135784
96830.01112040161
100055.473075558
102615.6958886317
103343.5130573773
103167.7381245647
101343.4783292013
99129.37844115171
95192.55165229601
93293.2476105704
93726.2759371963
95564.72165106689
97032.53103756327
98716.22829967328
100253.2003908535
100744.5150011989
100519.3989393283
99480.96074675805
98304.71875858337
96615.12850861563
95783.38602470838
96213.54012482465
96884.24016562034
97807.32847209784
98613.80376913646
98883.62459488066
98313.05828323071
97442.53571302038
96316.3420644274
95725.1214492892
95715.59020340172
96933.52250070228
97295.32161369189
98279.94687004511
99106.60634250115
99533.03732717545
99123.79361107813
98361.31559449651
96638.21481893348
95557.39721028498
95734.52500589436
95584.76742512184
96188.26213837515
97708.406642088
99356.25661044086
100226.4373085111
101297.2286222326
101351.0971222268
99660.14262530283
97176.3582029235
96530.98058871995
95724.66132432153
95519.64704026392
95585.02070678187
95741.03950604548
96082.60638391288
96752.05649694189
98087.73962077696
99661.74141023504
100938.6812078156
101406.2486984898
100248.3830269793
97768.26687174641
95628.05554937507
94214.56098669951
93622.82052417005
94162.06665264575
95930.15512210438
98395.54870511874
100230.0860258068
101402.6129630584
100748.940360975
98228.61770375329
96031.45425713625
94612.68988221252
94341.06228086304
95302.92825161415
97528.40112506188
99054.11647377296
100344.4946945349
100238.9952643847
98326.00666164192
95754.14294219248
94391.108707261
93691.51409944698
94426.03026379614
96752.71719071855
99761.1274064312
101551.9598947814
102388.781245206
101038.0259996538
97740.93643971709
94605.89555183682
93331.61665638899
93091.93012680694
94267.87589294201
96975.04480310918
100378.444170097
102708.9876945132
103373.0711719332
102221.5155338745
99711.5347497812
96214.4149269246
94179.78126451533
94073.47870364512
95297.41699442644
97365.87276266367
99798.06183447636
101494.0064755269
101477.1156872846
100253.8326568388
98245.84517922792
96052.83278918067
94835.01909995974
95139.76481889746
96489.5713180918
98061.80416824951
99023.48018865591
98718.41033624375
97433.84749588443
95780.50469524333
94534.05905826106
94178.44776408152
95054.23554762904
97065.45861845107
98602.85710157303
99896.73397865538
99782.42385027194
97975.22673775579
94906.32501084241
)
;

boundaryField
{
    inlet
    {
        type            uniformFixedValue;
        uniformValue    sine;
        uniformValueCoeffs
        {
            frequency       constant 3000;
            scale           constant 50;
            level           constant 101325;
        }
        value           uniform 101325;
    }
    outlet
    {
        type            waveTransmissive;
        gamma           1.4;
        fieldInf        101325;
        lInf            2.25;
        value           uniform 94825.21978238333;
    }
    frontAndBack
    {
        type            empty;
    }
}


// ************************************************************************* //
