/*--------------------------------*- C++ -*----------------------------------*\
| =========                 |                                                 |
| \\      /  F ield         | OpenFOAM: The Open Source CFD Toolbox           |
|  \\    /   O peration     | Version:  v2012                                 |
|   \\  /    A nd           | Website:  www.openfoam.com                      |
|    \\/     M anipulation  |                                                 |
\*---------------------------------------------------------------------------*/
FoamFile
{
    version     2.0;
    format      ascii;
    class       volScalarField;
    location    "0.017";
    object      T;
}
// * * * * * * * * * * * * * * * * * * * * * * * * * * * * * * * * * * * * * //

dimensions      [0 0 0 1 0 0 0];


internalField   nonuniform List<scalar> 
1000
(
299.8237200762785
300.7229676488065
300.5858725071733
299.7288229171476
298.6640584605961
297.7180362717641
297.1804005242617
297.6065795596347
299.0947016018359
300.425752233755
302.384972878855
303.2810214281727
302.9474856218324
301.637509950917
300.7535374175552
299.2019249097827
298.3065259924222
298.150569385216
298.6707981657323
298.7582472280367
299.4709526595395
299.9167083308502
299.7759377988093
299.8005413496133
299.515563114606
299.5077975509341
300.0492167715826
301.0853887246438
301.6409781278052
302.645229333347
302.5340338216291
301.2157077801198
299.4820917550508
298.3320233886242
297.2098780676668
296.9011285024795
297.3812401072283
298.4231907536089
299.3478199389213
301.329809712569
302.4534910577041
302.6684577758934
302.7919683075154
302.3802317470058
301.6791975654352
301.1837110843906
299.9801088147486
299.0468708763322
297.6740323635618
297.0279863883136
296.9991246326913
297.1229153193225
297.3758524393265
298.2784557540108
299.7699670947612
301.0129789648582
302.6534594847914
303.7725265563944
303.6239041461759
302.2332137660601
300.8335838122484
299.2650473009219
298.1256134307561
297.7314474937976
298.0523961391752
298.4025932224984
298.9953658269029
299.6659825339712
299.9359863354109
299.724351949227
299.7014332223357
299.5761598599256
299.8957461320018
300.6119811225191
301.2702721411092
302.1409700713791
302.3659243274214
301.3872417304948
299.4997970065072
298.6653851001503
297.3304650680225
296.6911048929417
296.9038488861797
297.8354601792917
298.9359052231859
300.889878497664
302.5775819539647
303.0615011198926
303.4185426165963
303.0698866484058
302.0204989602619
300.9985817107342
299.2573415102123
297.9991032144428
296.9295367974065
296.8771806976558
297.3798894395922
298.4534917600555
298.9595373608318
299.627825975821
300.1438322390773
300.4700689716083
300.5905962691376
301.0306528599443
301.7585300138343
302.0689439214786
301.5612613194029
301.1114950195675
300.5715896629386
299.9113774517522
299.1696488269567
298.6726293727835
297.9871604455968
297.5701976237994
297.7014861071172
298.6263840523574
299.6260174096419
300.8421102496532
301.2532616280329
301.4956033999239
301.5435944265994
301.0944908015409
300.8163095381461
299.9360546466521
298.8552731371029
298.2643034457362
298.3401241502347
298.0911952697733
298.3155571641397
298.8234243805504
299.549925559904
299.8023994586233
300.9412556265736
302.2670579058394
302.7311983348334
302.4650171742936
302.4048201170712
301.9438226235226
301.0243922943422
299.885424840179
298.3622245834197
296.9647529195303
295.8824757983564
295.809021049694
296.3493381215308
297.1423220086429
298.1921831339292
299.7973177139465
301.2168523490324
302.9758426667514
304.2031721488712
304.0926184994124
302.5635852383787
300.8103722787117
299.4006702757823
298.0523015815951
297.445691691838
297.6346125093796
298.3764623910707
298.6460775642045
299.818505391438
300.7631219024761
300.7677412997854
300.6710857945083
300.1606503551647
299.7961613583634
299.76515948909
300.0461003007971
300.0626454249341
300.3297029581318
300.0338341808762
299.3226169461033
299.05724286102
298.4239646724607
298.1183750138975
298.286351703183
298.952520216168
300.0073626566471
301.1860062169116
302.827235865532
303.3782470360064
302.5070884495483
301.339901082608
300.0722141766733
298.9479027783851
298.3754197079563
298.3796720489357
298.2189511104727
298.6233750496329
298.9765035168132
299.0904840982296
298.9296668640247
299.0456018531515
298.8123710785461
298.8203389346829
299.2477536392151
300.3268243073481
300.808712780216
302.2998770628905
302.8072524174058
301.9836728349591
300.5540252626163
299.8707507398836
298.7170033171018
297.8237920490596
297.6125745876139
297.8806964939736
297.9418973105199
298.772213174189
300.2106878031593
301.0592556189704
301.957481807461
302.1196307448519
301.9222824037539
301.3340586034354
300.2682874601552
299.1762579896071
298.0057259859511
297.461324554324
297.5429730350581
297.2864269523305
297.5291741965281
298.3414444575639
299.6416178846937
300.4456139296477
302.6201024902061
303.8957767783081
303.6517766006954
302.3099317984374
301.3468732098515
299.9041583843157
298.9877728495583
298.5334662938789
298.0789382834078
297.7870016322437
297.7190180698856
297.7956304381253
297.9677689438402
298.354330358743
298.3717623596937
298.6336820005834
299.2470733949452
300.2827154552142
301.2635488159634
303.0239499279929
303.7091207735334
302.9078251844626
301.5009462046806
300.8259736276179
299.5207873569669
298.1208352706618
297.2939072037512
297.2279119872006
297.008085027857
297.5906515035682
299.8404224054559
302.5125245917581
303.8155447788748
304.9132854376514
305.01066879722
304.4114069611853
302.5495096249872
299.8264876100143
296.8933195945087
294.4269765073392
292.8680959913214
292.8055668265955
294.4238008313389
298.1302911402396
302.8105925917988
305.4882758559459
306.3045739334604
305.2511607256174
302.6230627604629
299.1227759661024
296.1320745963516
294.6670552844866
294.8832409580349
296.1081271978721
299.1988525067432
302.15254631082
302.8540855909246
301.6835811512773
300.7488646410375
298.6181619976133
296.9787329451491
296.2820525600938
296.7050135351029
298.3614959590725
300.9789959365675
304.7351540001636
306.1527273080939
305.1491934719441
302.8614269338301
301.0861647298873
298.9431188592771
297.6075685345214
296.8281234515858
296.2347938395546
295.4458909706423
295.070774294745
295.9965290128385
298.4020744277814
300.2051650855645
301.6623618524844
301.9522728778508
301.6091053136493
300.5830306870346
299.0349699251873
297.6350450378478
297.1024228966461
297.5652628028039
298.5296647150519
299.1122257390952
299.3904805573453
299.4010402696329
299.4697411909544
299.770273640285
300.4432395368974
301.946744433752
302.8760035681068
302.296300243819
302.5479012730173
301.9713591349644
301.2196960051983
300.1181656724514
298.3594693761023
296.4598647730955
295.0206317542889
294.7742209582763
295.6573812395559
296.9425673698423
297.9152142896351
298.5069019301528
299.2747011433871
300.8149383213752
302.337026722801
304.9757476884126
305.8863518148634
304.2672951859597
300.7578412408313
298.8186965578448
296.4696732352941
295.2069076729023
294.8833098320584
295.6329651002249
296.9084993047447
299.4938631343745
302.9476074497013
304.4725006476049
305.5781481176184
305.1239298621085
303.334804429827
300.626542186348
297.2571561112849
293.9126804705008
292.0245152431135
292.4311169279084
294.4692002847398
297.072933639017
299.2732125511534
300.5521447641329
301.2196340075702
301.3872743211817
301.8482011882154
301.9271653002846
302.9419915054843
302.1718988862545
300.1663726993794
298.8359288065464
298.4909227348553
298.1298656436571
298.1347934160236
298.1883145235804
298.3477690585627
299.1361501679805
300.6275134929516
302.4461360905975
304.0496169318719
303.2804843880352
300.1269411688176
297.0942171417853
295.6710516924002
295.1435426588652
295.7424734418195
297.167099570503
299.2300632216894
301.5581068310327
303.278490033867
303.9076170030766
303.0977348779965
301.0757607912166
297.7853148575037
295.2514375072022
295.3509230778054
296.5176862556546
298.4741963033299
299.8838592272538
301.2186557601781
301.9831736652693
302.0416735705875
301.9917574870076
301.5421622005948
301.1858808800684
299.8193735455021
298.6096898421798
298.204275261083
298.0533670029223
297.8009382497451
298.0602871819917
298.8404096927583
300.2083798331898
300.9061835715073
302.773764508229
303.476197921026
302.4562153581944
300.1537030641612
299.1616783402982
297.805558482188
297.4040929198425
297.682373985638
298.6855087212892
300.0480390435899
301.1384177442644
301.6535736843807
300.7744512297598
298.7229161077581
297.5956369128909
296.5633158746012
296.7147773770035
298.0746758489782
300.1831675244552
302.366894707841
303.489549677219
303.1664558047638
301.2398420428208
299.2287132277058
297.0889525168081
296.1593773081088
296.4258206197126
297.9158993394667
299.8736491566359
302.1492523959117
303.0641640572657
302.3949871877826
300.4466352227463
298.7736897824927
297.4949848622448
297.3306437041696
298.2142363422085
299.8022965430708
301.0709134401025
301.8567770902756
301.4949542344107
299.8966185249319
298.2502760356848
296.6537836736127
296.4503606464816
297.5663933317484
299.9211723835752
302.6021938651301
304.0425380358139
303.7910621426915
302.3132968415767
300.353225750571
297.8899420157332
296.829975957362
296.9016186083996
297.731257265859
298.5787813608126
299.9560578132174
300.514823660432
300.1695014263109
300.0290697925871
299.5249446615318
298.9073541658288
298.5732580148572
298.2235794542114
298.538595608493
299.4710213675813
300.3215149515199
301.226466844027
301.3419662524337
301.133411244139
300.4286953704755
299.6194542708516
298.1062653550329
297.1172929534502
296.7403469435295
297.5147157534474
298.7692146338463
300.4818329201621
301.2071961876134
301.6934083835814
301.7710973700445
301.3607224968184
300.7508268150334
299.5771586361042
298.4343707092278
298.0807018518972
297.4015413772915
297.1730252818242
297.5634378088719
298.5814096643953
299.2716272394565
301.7694408616147
303.5710834081121
303.5704381308377
302.7247254410835
302.0364523460254
300.8778651140315
299.4037971835313
298.3075393448588
297.6698253762275
296.6874155479929
296.2960074205551
296.9868066957614
299.6341743736931
301.3915664816922
302.6667931646768
302.7020022303325
301.2526032228292
298.9914065009579
296.6616224441171
295.1705495596674
295.0940249732777
296.5440715407286
299.2140449056517
301.6709253086881
303.2132560650942
303.0304578947198
301.4590927775612
299.1994754005418
296.9950622072908
295.4929919641546
295.5024949994336
296.9415423419832
298.9987995469973
300.8419904311054
301.9117940665993
301.8409641383315
301.005244604941
299.7586074541894
298.8070573499918
298.1363128858732
298.1375880327529
298.7517847787238
299.1901264490078
299.5500507423582
299.5785681428965
299.4140933051531
299.2789850519057
299.5370807100869
300.046153271525
300.2441596110327
299.9960827767442
300.3268944882796
300.181382390031
300.2092784274657
300.1306819275135
299.9129906410585
299.6730569926
298.80245818749
298.3870388012265
297.9396043184552
297.7032268811261
297.9044164352061
298.1475037465427
298.4104281812277
298.7653399174313
299.2386217870721
299.6243724684022
300.6733763184473
301.4801962747624
301.2352305754376
300.2307548720957
299.9217255858372
299.2620544755901
299.0078915152431
298.9295700377294
298.8110926738461
298.8463334986676
298.7320356339519
298.7440573917689
299.3729983506487
300.1451006051358
300.4986676351206
300.6411354087986
301.1745880750173
301.323197610137
301.5799855709651
301.54935550276
301.0729517154178
300.2340228482661
298.0169192743757
296.0358363723726
294.4949189026264
295.3448617716019
298.6227908117368
301.2394105313139
303.5285512693242
304.5301369840126
304.762756456206
303.6318916511369
301.5269237796375
298.5424143970818
295.445353803357
293.2282870136223
292.53257808402
293.9641638761205
297.3026300764603
301.5389721650116
303.7584073176948
303.6357471681568
302.4074801604896
300.2277013311426
297.786006098777
296.4893312945343
296.0507020395469
295.3728172481596
295.7205444665267
297.1179818255412
299.1223796178173
300.1182300206746
300.9516624738487
300.8082354113737
300.6509159024863
300.2980624531648
299.7839946650907
298.1441848025224
296.6689759067191
295.0907363978453
294.7772569394617
295.8579894129875
297.7756555251712
299.7746835542493
301.3701352342995
302.961619316161
303.827136165654
303.7122606558383
302.7859439474129
300.0036445115917
296.584246833289
294.0902920672237
292.828506766491
293.4269657846611
296.046783742498
300.0483980548415
304.4237457446827
306.2740776259066
305.3803540117013
302.3889218597627
299.9164521490329
297.6549177083571
296.6824951685988
296.6080211795622
296.8086364541527
296.9679452928367
297.5737609055706
297.0378899859199
297.901668799584
298.2969590530761
298.1431131231848
297.608442512381
298.0741361112005
297.8465834399232
298.0645149264506
298.3846198360841
298.7140308821777
299.5495412348915
299.5297670430409
300.3954890610897
299.7556458856773
297.762951431116
296.0864208678695
295.101417926231
294.7685483272975
295.5482136772679
297.4102796955016
299.8960809401472
302.3729482133894
304.1531494782496
303.9906152850171
301.5861960556931
298.6571825266772
296.3861962465209
295.0647548922493
294.9440208606273
295.7961318178506
297.7908970015565
299.1697547951152
301.8851700311448
302.8834203683489
301.746151912367
299.567091746518
297.9875583428941
296.8055791449565
296.4779033829703
296.7252927369814
297.3410552748829
297.4735743229561
298.007411528056
298.2977313373847
298.4846822858125
299.2326374450572
299.9260678374656
300.3150579330677
300.0191781650449
298.9106323278317
297.0074886694139
295.1330965997741
294.0725262612266
294.8886386762854
297.0148469612988
300.0328963780815
302.2916925720513
302.7953353183552
301.3938087602041
299.420308440158
297.1759307938661
295.9448219342564
295.7237078222747
296.4534800603171
297.4453350485669
299.122052638449
300.5932579658098
300.7375326316714
299.8883852862991
299.6386927364571
299.0677772316976
298.405849333889
297.7438847974385
296.9843826726571
295.9957363659921
295.8295678421946
297.3515064541976
299.6527042560585
301.533218860603
302.5793546725487
302.2815321518034
300.3484988911243
297.5834907027229
295.0307044048894
293.6394601970431
293.7859395212421
295.4598928830011
298.2410639141969
301.7354145197049
302.8948495091816
301.7458454868554
300.0927099852911
298.4267573697822
297.1090453804293
296.2861455454001
295.9287953154544
296.0329151804805
296.3325335064962
296.9031572127126
298.5466608779668
300.1063256965656
300.1359698901326
299.3938444320642
298.9218640459819
298.0733127613747
297.1882337640287
296.2975192552422
295.5260491442148
295.1546270448023
295.7613034185038
296.3030336851127
298.4762319394232
299.9139074895339
299.4315196134773
297.6264035142871
297.498206955081
296.5566659181468
296.6103562525154
296.9735082886809
297.4523975000283
298.1967142193972
297.9582465327257
298.5396886982174
297.9896285515582
296.7456085915207
295.8807267204313
295.8322111878049
295.9206632019124
296.7546478191499
297.8579679552882
298.7095091837233
299.6313505528515
299.7113445106734
298.6731281071972
297.3761392745162
296.7650003364295
296.0715028232108
295.8605502152505
296.1659378132435
295.9887296734732
296.5588756477331
297.4808208051657
298.0086030413247
298.5366195489797
298.3901049400285
297.4888797933269
296.3136726388236
295.1940296506588
294.8681643357156
295.5277434706217
296.8160344944626
298.171476341501
299.1937605450866
299.1644053035171
298.1273957491715
296.0880021126289
294.0210558278169
293.2341825506375
294.3498427047587
296.1632273919381
298.0367689206488
299.2335503419553
300.0814064159006
300.1151835982619
299.4537146122888
297.3316089641532
295.2245223027771
293.6180026637481
293.9459270132419
295.2695905756568
297.6408537437521
299.0080409787487
300.3877276257437
300.8893056699429
300.6734626091339
298.8960376707435
296.242497488713
293.0955951176497
291.8970567119342
293.248106986834
295.8163684540091
299.1994820202042
301.2389662865667
302.200355491036
302.1225132251584
300.3623667597444
297.5249226494278
293.8012796109519
291.3730435135596
290.2515509813601
291.442722728674
294.7216672260613
298.2401608416294
301.4963378297837
302.5079214877206
300.6062575867721
296.7131505749504
293.0040495599779
290.9193989086675
290.1740758253878
291.3012032792147
293.8752248447678
297.7096440040463
300.9058306569675
302.7431808878472
302.9176071105423
300.4240293142287
295.9348516909334
291.6036106814287
290.260357158056
291.0282079658406
293.2235718302857
296.0285957909861
298.8249140872263
301.003133798144
301.6126236220547
301.460729398711
299.9195259283183
298.0346612700837
294.6209049354907
292.9109228604877
293.2931592954967
294.9241779034081
296.220105708037
297.6876846228029
299.0048009267111
299.4198138061864
299.2221196710167
298.3364602263935
297.3335857880456
295.8631936215898
295.1265325004035
295.4994810515113
296.0890821604535
296.8989609187119
297.5973345942741
297.8274142235079
297.3298463687787
296.5760205613303
295.5985410154621
295.0769298141769
295.0643348601607
296.1315570469046
296.4510292711463
297.3086941690707
298.0216388787735
298.3859051920995
298.0364111247105
297.3847730287023
295.8867044261929
294.9342324666566
295.0906171883673
294.9624207657411
295.4973490199228
296.8253132790471
298.2464146155966
298.988310297102
299.8969455325254
299.9439217644757
298.506430097935
296.3617768190531
295.7955675210851
295.0857645572558
294.9038694768298
294.9610003550492
295.0984057537822
295.3991489982495
295.9861517738586
297.1479287396938
298.5026587341557
299.590708226087
299.9853653396685
299.0017736287282
296.8711189579057
295.0000117543716
293.747939833302
293.2191728394395
293.7019081452775
295.2698027172178
297.420250970732
298.9964260915156
299.9918524574994
299.438697246785
297.2823269727534
295.3641147170613
294.1090746984073
293.8670209716992
294.7203095884879
296.6741382375885
297.9930338406393
299.0970635309945
299.0071849839618
297.3653292007889
295.1194825201282
293.913412759698
293.2899178750405
293.9463062451715
296.0004333686002
298.6028975137855
300.1260320645634
300.8317521499343
299.6929148387272
296.8701137991404
294.1136567873345
292.97515370447
292.7614912898591
293.8162780774961
296.2070897822691
299.1445865810305
301.1125943736801
301.6670250937258
300.7024393696232
298.5749977977109
295.5452151592332
293.7425547676323
293.647158619036
294.7332014181039
296.5491510704011
298.6513046802071
300.0950170259733
300.0818737895189
299.0433414877056
297.3193681342166
295.4087076306657
294.3334494581956
294.6042520139923
295.7937462643991
297.1643283035346
297.9946988864936
297.7306705183499
296.6163759910992
295.1704049883788
294.0715737431572
293.7587442504758
294.5361029508658
296.2949520965445
297.6232047413813
298.7349417848674
298.5486284814794
296.9094415348187
295.0354392268428
)
;

boundaryField
{
    inlet
    {
        type            fixedValue;
        value           uniform 300;
    }
    outlet
    {
        type            inletOutlet;
        inletValue      uniform 300;
        value           uniform 300;
    }
    frontAndBack
    {
        type            empty;
    }
}


// ************************************************************************* //
