/*--------------------------------*- C++ -*----------------------------------*\
| =========                 |                                                 |
| \\      /  F ield         | OpenFOAM: The Open Source CFD Toolbox           |
|  \\    /   O peration     | Version:  v2012                                 |
|   \\  /    A nd           | Website:  www.openfoam.com                      |
|    \\/     M anipulation  |                                                 |
\*---------------------------------------------------------------------------*/
FoamFile
{
    version     2.0;
    format      ascii;
    class       volVectorField;
    location    "0.017";
    object      U;
}
// * * * * * * * * * * * * * * * * * * * * * * * * * * * * * * * * * * * * * //

dimensions      [0 1 -1 0 0 0 0];


internalField   nonuniform List<vector> 
1000
(
(6.753186720963516 0 0)
(3.296358325816767 0 0)
(-0.6590492526586166 0 0)
(-4.343864880691381 0 0)
(-5.997512919712911 0 0)
(-4.670740037226135 0 0)
(-0.9600220801388881 0 0)
(3.456892890689179 0 0)
(6.760268826531645 0 0)
(6.876899293540545 0 0)
(3.367049527786906 0 0)
(-0.3464579990675835 0 0)
(-4.59111260566998 0 0)
(-7.199334150071722 0 0)
(-7.376880621348323 0 0)
(-3.854835014508609 0 0)
(0.5898524785360972 0 0)
(4.69081916212361 0 0)
(7.244096559911202 0 0)
(7.068835325997402 0 0)
(3.73009455491617 0 0)
(-0.6254359029965297 0 0)
(-4.231687295344662 0 0)
(-4.822072329712308 0 0)
(-2.779784327090461 0 0)
(1.301421393351418 0 0)
(5.421984781537494 0 0)
(8.408984528441072 0 0)
(8.033704817225431 0 0)
(4.822142031163589 0 0)
(-0.5343502228471809 0 0)
(-5.756720954145579 0 0)
(-9.185571022367423 0 0)
(-8.182005014170615 0 0)
(-4.094508135644049 0 0)
(0.914090775935041 0 0)
(4.888263703541653 0 0)
(6.849765287962603 0 0)
(6.004175548910773 0 0)
(0.9111208181590785 0 0)
(-2.984562985144631 0 0)
(-4.739969861389616 0 0)
(-3.411706391581036 0 0)
(-0.2327451905127604 0 0)
(4.107607233548991 0 0)
(6.935526181370633 0 0)
(7.179835378051824 0 0)
(4.388952138430976 0 0)
(-1.234104934013769 0 0)
(-5.365139849022125 0 0)
(-7.135071611783817 0 0)
(-5.889105702614036 0 0)
(-2.176144249218575 0 0)
(2.990364648286612 0 0)
(7.516390607297232 0 0)
(8.515343369845601 0 0)
(5.707228307933408 0 0)
(1.716337195599299 0 0)
(-4.025123476813909 0 0)
(-7.627214162320681 0 0)
(-8.982827023745951 0 0)
(-6.51977558101842 0 0)
(-1.862421111540081 0 0)
(3.126238330399527 0 0)
(7.043228172157281 0 0)
(8.271647332428453 0 0)
(6.091453440033807 0 0)
(1.46958989869768 0 0)
(-3.121120497393797 0 0)
(-5.445340610651686 0 0)
(-4.132445871535187 0 0)
(-0.2566092721696884 0 0)
(4.0972905347009 0 0)
(7.767510446560993 0 0)
(8.668519321177879 0 0)
(6.640249840765033 0 0)
(1.699360746811504 0 0)
(-3.816998287578947 0 0)
(-9.323240641009571 0 0)
(-9.917361532076013 0 0)
(-6.516759600610261 0 0)
(-1.94495899536034 0 0)
(3.188863883003448 0 0)
(5.99680215808986 0 0)
(6.502474162580318 0 0)
(2.923346568519381 0 0)
(-1.461203030436423 0 0)
(-3.595947644186174 0 0)
(-2.453132945244701 0 0)
(0.05150324957191035 0 0)
(4.616095992393866 0 0)
(7.605749103584885 0 0)
(7.697424993253422 0 0)
(4.046612592155485 0 0)
(-2.799376517667619 0 0)
(-7.593670859838261 0 0)
(-10.76321254069778 0 0)
(-9.960539090020564 0 0)
(-6.096083678379354 0 0)
(0.4228956439468658 0 0)
(6.925087821119595 0 0)
(11.53469049330137 0 0)
(12.95706940176821 0 0)
(10.53289953518948 0 0)
(4.071309388880312 0 0)
(-3.946509074596515 0 0)
(-9.826281972350646 0 0)
(-11.38071882168819 0 0)
(-9.001020373896347 0 0)
(-3.802980046861085 0 0)
(2.538867319442106 0 0)
(6.886216188618929 0 0)
(8.289877176512762 0 0)
(5.997768669855565 0 0)
(2.367571351230929 0 0)
(-3.140564283213751 0 0)
(-5.848287770032954 0 0)
(-4.737299571690307 0 0)
(-0.8132872637620152 0 0)
(3.791584736957127 0 0)
(7.56588578292862 0 0)
(8.948076729861642 0 0)
(6.267447180751851 0 0)
(0.08189325130830122 0 0)
(-6.469297139085445 0 0)
(-9.587900868246743 0 0)
(-9.057839452314736 0 0)
(-5.1143099659624 0 0)
(1.019146266056854 0 0)
(6.77378005226551 0 0)
(10.58609637488693 0 0)
(11.05155920589621 0 0)
(7.106661733788918 0 0)
(0.3623393444218909 0 0)
(-5.11076906861451 0 0)
(-7.464528628767612 0 0)
(-6.052620819189259 0 0)
(-2.664176968310725 0 0)
(0.9706056159248687 0 0)
(2.541123159689251 0 0)
(2.283967724207493 0 0)
(0.1681265847093039 0 0)
(-2.652522930252459 0 0)
(-2.998239617112905 0 0)
(-2.930943940464168 0 0)
(-0.3505440917227456 0 0)
(4.169546398708212 0 0)
(8.563446952150125 0 0)
(9.694917647294066 0 0)
(6.941849587980245 0 0)
(2.921391810621303 0 0)
(-3.369033776828955 0 0)
(-8.331731715644761 0 0)
(-11.1620743533437 0 0)
(-9.518623677320656 0 0)
(-4.488306470998991 0 0)
(1.404021579758195 0 0)
(6.541200966729793 0 0)
(9.284446593397728 0 0)
(9.059802503437799 0 0)
(4.730992368124316 0 0)
(-0.7239435964793346 0 0)
(-4.677496499361727 0 0)
(-5.29416801565182 0 0)
(-2.794443877161645 0 0)
(1.467769014581846 0 0)
(5.864210714243486 0 0)
(8.224107886789284 0 0)
(7.322917119570983 0 0)
(2.467076052088642 0 0)
(-4.041665797774503 0 0)
(-9.070247810913989 0 0)
(-10.00672868512056 0 0)
(-7.12576147383676 0 0)
(-1.650467651778921 0 0)
(4.634741083303441 0 0)
(9.578702051342672 0 0)
(11.70853402286346 0 0)
(9.707526993820279 0 0)
(3.629577736271025 0 0)
(-2.948471146085088 0 0)
(-7.706585173835747 0 0)
(-9.256193499303379 0 0)
(-7.121603911741481 0 0)
(-2.088404434949462 0 0)
(3.434623838494161 0 0)
(7.503992131290227 0 0)
(8.235813250324764 0 0)
(5.124446733728488 0 0)
(-0.5643332536110187 0 0)
(-6.486030087009834 0 0)
(-9.429250816928134 0 0)
(-7.771265182449263 0 0)
(-3.18812859115273 0 0)
(2.767347355013734 0 0)
(7.97515073066926 0 0)
(11.47514162487889 0 0)
(11.21470187632573 0 0)
(6.404222157441108 0 0)
(-0.3789797574227829 0 0)
(-6.46574044465486 0 0)
(-10.23210334688696 0 0)
(-9.651750763551112 0 0)
(-5.070583318555251 0 0)
(1.021709905075227 0 0)
(5.860467379678658 0 0)
(8.120766905212166 0 0)
(7.223659613779706 0 0)
(3.31243875224547 0 0)
(-2.024759691001755 0 0)
(-4.49743351941429 0 0)
(-3.649087551201556 0 0)
(-0.5678346053813657 0 0)
(2.885382331956535 0 0)
(5.486980715501895 0 0)
(4.823909480195942 0 0)
(1.112372994930601 0 0)
(-3.877162735996483 0 0)
(-6.131036734282739 0 0)
(-5.897672475976288 0 0)
(-2.879080927695923 0 0)
(2.403583127584036 0 0)
(7.829909940116649 0 0)
(11.44916483863154 0 0)
(10.80428870719532 0 0)
(4.79035041874646 0 0)
(-0.6887977875640551 0 0)
(-6.29528625640518 0 0)
(-8.819732899367866 0 0)
(-8.473529185262308 0 0)
(-4.212793819625133 0 0)
(0.889604035296677 0 0)
(4.866155650147897 0 0)
(6.396617189469985 0 0)
(4.430018683977121 0 0)
(0.1686359867789902 0 0)
(-4.145128741001947 0 0)
(-6.450262190673125 0 0)
(-5.177701399643484 0 0)
(-1.214813708141791 0 0)
(4.425891723597302 0 0)
(9.483249058841324 0 0)
(12.22614397082705 0 0)
(10.70118546231573 0 0)
(4.333325608468338 0 0)
(-3.448752054699711 0 0)
(-10.29692676414681 0 0)
(-14.10430578713197 0 0)
(-13.29638080956692 0 0)
(-7.769037515412339 0 0)
(0.4331668438668231 0 0)
(7.776608049886439 0 0)
(12.16840290860092 0 0)
(12.76234275060577 0 0)
(9.5737847221724 0 0)
(-0.2893775648610144 0 0)
(-10.24262935243939 0 0)
(-13.7852594307826 0 0)
(-12.75548713787902 0 0)
(-9.528914872972678 0 0)
(-4.905784537967855 0 0)
(0.4420962962648235 0 0)
(4.131742080868183 0 0)
(5.630237345376746 0 0)
(5.837027989429405 0 0)
(5.920095805119317 0 0)
(8.260790164292349 0 0)
(7.184719911413295 0 0)
(2.868297440521865 0 0)
(-2.971183320835578 0 0)
(-4.353467822026445 0 0)
(-3.239277223241369 0 0)
(-1.386012854695075 0 0)
(1.250697476106255 0 0)
(4.201053980401448 0 0)
(6.037708119757776 0 0)
(7.193720072677569 0 0)
(10.00005771022955 0 0)
(9.50735773054001 0 0)
(3.645026954719624 0 0)
(-4.861568667947271 0 0)
(-10.83170081323191 0 0)
(-14.19119248141426 0 0)
(-13.37909024605145 0 0)
(-6.841736785535726 0 0)
(0.7862390671455443 0 0)
(7.733690891992911 0 0)
(13.36898956786011 0 0)
(14.92088929052878 0 0)
(11.41955990491259 0 0)
(1.973950363354596 0 0)
(-5.194206261721557 0 0)
(-11.27116729089211 0 0)
(-14.34566609828874 0 0)
(-13.8682475975164 0 0)
(-8.573173689990853 0 0)
(-0.9053688946723246 0 0)
(6.598814157047908 0 0)
(11.75911375165355 0 0)
(13.26699998404914 0 0)
(10.99499290137615 0 0)
(6.42422611724107 0 0)
(-0.03798423149065289 0 0)
(-2.898793529143434 0 0)
(-1.459127056248578 0 0)
(2.851790022456544 0 0)
(7.756080067965405 0 0)
(11.54731525365679 0 0)
(10.11013501582312 0 0)
(3.405320740486482 0 0)
(-3.61627349287746 0 0)
(-9.575416101588139 0 0)
(-11.04633341451248 0 0)
(-7.750455348203829 0 0)
(-0.7045478833134903 0 0)
(6.647013263745221 0 0)
(13.23026039795314 0 0)
(15.60369180350752 0 0)
(12.44251980773631 0 0)
(3.374510768976656 0 0)
(-6.639291122946198 0 0)
(-12.59830565297425 0 0)
(-12.33891722326448 0 0)
(-8.626732720074168 0 0)
(-2.965046954076341 0 0)
(1.698171924329098 0 0)
(3.397534123874608 0 0)
(2.47364660104756 0 0)
(0.2687936023860663 0 0)
(-0.1838623843303629 0 0)
(-1.499074396206073 0 0)
(-0.9724390523958594 0 0)
(1.706248385667523 0 0)
(5.875872425359994 0 0)
(10.35375127764165 0 0)
(13.29097805963789 0 0)
(11.79855583340372 0 0)
(5.990786467173133 0 0)
(-1.316097200444239 0 0)
(-8.056342644691179 0 0)
(-14.93705974857891 0 0)
(-15.61291443045001 0 0)
(-10.33122217862151 0 0)
(-2.888545917904199 0 0)
(4.200461523171064 0 0)
(9.110550926057606 0 0)
(10.39763358481542 0 0)
(5.513118943313275 0 0)
(-2.794767921323838 0 0)
(-6.928379934303265 0 0)
(-4.58369796017089 0 0)
(-1.996117714087779 0 0)
(2.34034041229324 0 0)
(4.089085835110743 0 0)
(2.67865865018807 0 0)
(-0.3745130328540675 0 0)
(-3.316533490410409 0 0)
(-3.296144226186938 0 0)
(-4.579817052518678 0 0)
(-4.618982311318645 0 0)
(-2.947930742658773 0 0)
(1.36526671124172 0 0)
(8.708390160422155 0 0)
(15.0539360396513 0 0)
(19.57277596959075 0 0)
(18.64473885526322 0 0)
(9.892607861949241 0 0)
(-4.853323704625999 0 0)
(-18.24171440896151 0 0)
(-23.93227260885379 0 0)
(-21.19632605019052 0 0)
(-14.14396611111279 0 0)
(-5.265499941315115 0 0)
(3.8947919105389 0 0)
(12.37158653680486 0 0)
(18.19768131625806 0 0)
(20.45762429929556 0 0)
(17.74074730048289 0 0)
(11.05342492527934 0 0)
(1.410842081830915 0 0)
(-8.387272855127014 0 0)
(-14.10419305128626 0 0)
(-13.6427716366719 0 0)
(-9.166342389498919 0 0)
(-3.862823909197703 0 0)
(1.369541857988391 0 0)
(5.449885685447484 0 0)
(8.721754914596673 0 0)
(10.73186158792642 0 0)
(11.82984736312627 0 0)
(13.209909282751 0 0)
(11.69522592676899 0 0)
(4.271052200323641 0 0)
(-4.621514455721737 0 0)
(-8.16907339055518 0 0)
(-11.40377637772968 0 0)
(-11.50648193513319 0 0)
(-7.798609162336018 0 0)
(-0.8443238734403404 0 0)
(6.701594282800179 0 0)
(12.34679613482279 0 0)
(15.50548388585384 0 0)
(14.42044766490492 0 0)
(7.806899372382829 0 0)
(-2.740809282439952 0 0)
(-10.83050839983422 0 0)
(-13.58367657404937 0 0)
(-11.42537809655667 0 0)
(-5.660616770336215 0 0)
(1.960147018777068 0 0)
(9.086262584325668 0 0)
(13.91804095106477 0 0)
(13.92330444076029 0 0)
(8.803479354136394 0 0)
(1.422458409293483 0 0)
(-5.65319946075854 0 0)
(-11.45768248679807 0 0)
(-11.69497486117527 0 0)
(-8.018173330334346 0 0)
(-2.200949278719824 0 0)
(4.12184980794995 0 0)
(9.023118229251722 0 0)
(11.17042693494418 0 0)
(10.09797793132677 0 0)
(6.018119771291959 0 0)
(1.647124156831014 0 0)
(-2.71532780483885 0 0)
(-3.294911566643055 0 0)
(-1.775896770215984 0 0)
(1.134080504433147 0 0)
(2.187193269968671 0 0)
(2.345131007066859 0 0)
(1.554934696916708 0 0)
(0.7502283897340579 0 0)
(-1.493553927846614 0 0)
(-2.989273032249678 0 0)
(-3.35096825892433 0 0)
(-1.395842432077762 0 0)
(1.102368659452671 0 0)
(4.70388324030079 0 0)
(5.386682453998349 0 0)
(4.694886360402288 0 0)
(2.911182170180594 0 0)
(1.139481181240845 0 0)
(-0.9747867040021065 0 0)
(-2.443522957388548 0 0)
(-3.034429859542346 0 0)
(-2.448117815116142 0 0)
(0.7004579149558976 0 0)
(2.628780663147221 0 0)
(4.065895658507801 0 0)
(4.144639576969805 0 0)
(3.501901795231285 0 0)
(2.158154916587047 0 0)
(1.42367164356727 0 0)
(1.418403285433472 0 0)
(2.14504682627077 0 0)
(3.42285964767134 0 0)
(2.795800492369379 0 0)
(0.5074945285781903 0 0)
(-2.22583018792653 0 0)
(-2.901363711079136 0 0)
(-5.148417184106948 0 0)
(-5.48785731285018 0 0)
(-4.244251828313214 0 0)
(-0.2786069852508995 0 0)
(3.235155159016147 0 0)
(7.088155600662898 0 0)
(8.696793050365571 0 0)
(7.730450719113565 0 0)
(3.127395859553046 0 0)
(-1.201045425387647 0 0)
(-3.642930886234842 0 0)
(-2.615183142266705 0 0)
(0.7945404336974876 0 0)
(4.805242986296732 0 0)
(6.95584336563148 0 0)
(5.565963324945375 0 0)
(1.883411073319197 0 0)
(-4.29958575187961 0 0)
(-8.653072344840218 0 0)
(-8.827485337773961 0 0)
(-5.319102227713475 0 0)
(-0.3171706824237668 0 0)
(5.986362248077135 0 0)
(10.23194451884708 0 0)
(11.32165864880904 0 0)
(8.157242836966113 0 0)
(2.591426189361507 0 0)
(-3.835039025251526 0 0)
(-7.571429685698949 0 0)
(-6.976730250078074 0 0)
(-3.291247156903957 0 0)
(1.70163507241663 0 0)
(5.408766895253796 0 0)
(7.326708709950232 0 0)
(5.62331069138046 0 0)
(1.085480729460929 0 0)
(-3.368669838474407 0 0)
(-4.070955243019259 0 0)
(-1.593102169618235 0 0)
(3.583255947995038 0 0)
(8.956312199251403 0 0)
(12.47073420608287 0 0)
(11.44662761422612 0 0)
(3.008932761486673 0 0)
(-5.912249736099802 0 0)
(-12.39907805417099 0 0)
(-14.8890159127203 0 0)
(-13.24896780565613 0 0)
(-7.290833147572822 0 0)
(1.021901847673622 0 0)
(8.465579117881486 0 0)
(12.68690627480204 0 0)
(13.25091452660033 0 0)
(10.32241746550175 0 0)
(5.578074868825568 0 0)
(-3.359569632317731 0 0)
(-7.380731083160269 0 0)
(-5.772992216504815 0 0)
(-4.344521705982875 0 0)
(-0.1182493175510237 0 0)
(3.668808340923084 0 0)
(5.646696242410192 0 0)
(5.397090674368173 0 0)
(5.876117200541528 0 0)
(3.320625728965561 0 0)
(0.1237476677145928 0 0)
(-1.316483804887316 0 0)
(1.095446068399067 0 0)
(1.775190680293346 0 0)
(4.442512444683207 0 0)
(5.38834254295537 0 0)
(4.183817512793036 0 0)
(1.235726433119546 0 0)
(1.06178978771791 0 0)
(-1.68613783821124 0 0)
(-2.555554630556561 0 0)
(-1.054695145111973 0 0)
(2.963756600032458 0 0)
(5.474166617098974 0 0)
(8.439246258119642 0 0)
(7.945925473088655 0 0)
(3.723809038259881 0 0)
(-2.598580942122632 0 0)
(-7.286676384391646 0 0)
(-8.976307491822906 0 0)
(-6.13446082020813 0 0)
(0.3754717454723445 0 0)
(6.727854316394636 0 0)
(12.8860738845481 0 0)
(14.9269966076286 0 0)
(11.83077118259843 0 0)
(3.415365773416749 0 0)
(-6.766172024618839 0 0)
(-14.00872806732514 0 0)
(-15.29972156174133 0 0)
(-11.3546680674609 0 0)
(-3.880544375702084 0 0)
(4.058148687080839 0 0)
(11.40128108190572 0 0)
(15.28466517008801 0 0)
(14.45610129943795 0 0)
(8.335594303131451 0 0)
(-0.5470692668286403 0 0)
(-7.595506948784686 0 0)
(-10.30759862560867 0 0)
(-7.262770782421921 0 0)
(-0.3476078783690375 0 0)
(7.326335779849515 0 0)
(13.42040795419024 0 0)
(15.29680450776772 0 0)
(11.0730888428285 0 0)
(1.810307062664199 0 0)
(-9.191354740896852 0 0)
(-17.08871186909615 0 0)
(-18.69587024299326 0 0)
(-14.6119866299679 0 0)
(-6.817019452042111 0 0)
(2.550374845685742 0 0)
(12.09527337430373 0 0)
(19.7075786963081 0 0)
(23.571266571832 0 0)
(20.33327393754855 0 0)
(9.290232740110211 0 0)
(-6.142713686935848 0 0)
(-17.91067393309132 0 0)
(-21.73694268227793 0 0)
(-18.9260375492999 0 0)
(-12.46145793874219 0 0)
(-3.799403296634177 0 0)
(4.783460669045241 0 0)
(13.33531177320644 0 0)
(19.18651981530342 0 0)
(21.23815993169665 0 0)
(18.09391407294792 0 0)
(9.306149889552108 0 0)
(0.034853570484127 0 0)
(-12.26793567636718 0 0)
(-16.43198074217326 0 0)
(-14.10011434839447 0 0)
(-7.671509766955013 0 0)
(-2.179192996522479 0 0)
(4.373389542937002 0 0)
(8.163238096658816 0 0)
(9.702695871376827 0 0)
(9.48485512252766 0 0)
(8.756828542548824 0 0)
(9.71352770483584 0 0)
(9.119375132895051 0 0)
(4.989757244729828 0 0)
(-1.01251570724185 0 0)
(-2.558863909246993 0 0)
(-4.789619922907236 0 0)
(-4.232182013835328 0 0)
(-2.103508870702198 0 0)
(3.343100616992167 0 0)
(9.428066601990627 0 0)
(13.67835216828759 0 0)
(13.70615261281255 0 0)
(9.745102644952611 0 0)
(0.67419115373745 0 0)
(-8.877197051294077 0 0)
(-12.53920108139433 0 0)
(-9.900405460792859 0 0)
(-4.464191313728108 0 0)
(2.801859926321044 0 0)
(10.84470534526178 0 0)
(16.63103152932023 0 0)
(19.00836767149648 0 0)
(15.70640605752619 0 0)
(6.620873288759363 0 0)
(-0.748170625641884 0 0)
(-8.228452397549086 0 0)
(-10.45864524883893 0 0)
(-8.005534307036058 0 0)
(-3.200766406790823 0 0)
(2.541671434974866 0 0)
(6.567354247824909 0 0)
(8.202085430242045 0 0)
(7.837191636727638 0 0)
(5.25591029299069 0 0)
(2.229849553711816 0 0)
(2.528095360211326 0 0)
(4.973902598519827 0 0)
(8.744013387761694 0 0)
(9.229685086799835 0 0)
(5.434356893891478 0 0)
(-0.7608401225527243 0 0)
(-4.082317210159259 0 0)
(-8.56761632911647 0 0)
(-11.8256259668286 0 0)
(-13.24286349728371 0 0)
(-11.2618043891279 0 0)
(-6.132310566304601 0 0)
(1.868753448571981 0 0)
(10.73598486469107 0 0)
(19.19058827539499 0 0)
(25.21862084412122 0 0)
(25.64082545200355 0 0)
(17.35411646505732 0 0)
(2.812112499919626 0 0)
(-11.34119376515761 0 0)
(-17.85748972544632 0 0)
(-15.51485054681999 0 0)
(-8.586060426512621 0 0)
(0.3714955781402624 0 0)
(9.924370296628902 0 0)
(18.13387818109991 0 0)
(23.08075059560231 0 0)
(22.72659424245946 0 0)
(15.78786542002852 0 0)
(4.830700636123598 0 0)
(-5.300313379696739 0 0)
(-9.489647396035924 0 0)
(-7.280854232650176 0 0)
(-0.8521566211156941 0 0)
(6.034376310018637 0 0)
(11.4865010181591 0 0)
(13.52825268018443 0 0)
(11.63423617864173 0 0)
(8.104589352491629 0 0)
(1.262374803319341 0 0)
(-4.355000204718696 0 0)
(-7.839843229213514 0 0)
(-6.369477000345452 0 0)
(-1.600855251608624 0 0)
(6.166417712939907 0 0)
(12.27273910312511 0 0)
(16.6870594449425 0 0)
(16.06765882493642 0 0)
(9.625933373755407 0 0)
(2.37901261209662 0 0)
(-4.216779737977316 0 0)
(-7.803944385026346 0 0)
(-6.613095470974811 0 0)
(-1.208208919366396 0 0)
(6.413785465422809 0 0)
(13.51529606930463 0 0)
(17.32019500279221 0 0)
(16.19587460311054 0 0)
(10.15043479366814 0 0)
(2.13853547636629 0 0)
(-3.97158796050655 0 0)
(-5.739890827323212 0 0)
(-3.154680006556299 0 0)
(1.312887602452494 0 0)
(5.494171516640147 0 0)
(7.980781277205863 0 0)
(8.485524764134073 0 0)
(8.344907795916544 0 0)
(8.37165912589653 0 0)
(8.679997046747252 0 0)
(7.320570340243853 0 0)
(4.635557570315738 0 0)
(2.286325730652015 0 0)
(-1.403526578146504 0 0)
(-3.743201107414918 0 0)
(-4.628427712931702 0 0)
(-2.087056658469725 0 0)
(2.678059700876781 0 0)
(9.396150073538697 0 0)
(14.93113615447446 0 0)
(16.94198052745334 0 0)
(12.39629693707147 0 0)
(3.681607422989138 0 0)
(-4.991194350206008 0 0)
(-9.374477112402902 0 0)
(-7.776365632140108 0 0)
(-1.58899055583855 0 0)
(6.757625309601038 0 0)
(14.35137672779818 0 0)
(17.85696771848767 0 0)
(16.09050553772849 0 0)
(10.63760210535571 0 0)
(1.612056870205535 0 0)
(-5.706572880856652 0 0)
(-6.930835190538557 0 0)
(-3.638788017767957 0 0)
(-1.22621808750207 0 0)
(2.545907790110686 0 0)
(5.908631052998805 0 0)
(8.227218781640925 0 0)
(9.869920096212732 0 0)
(13.52147085641085 0 0)
(13.97145719982286 0 0)
(10.60916335731543 0 0)
(3.259075149287507 0 0)
(-2.704805016319896 0 0)
(-7.514975714060638 0 0)
(-9.305913453277739 0 0)
(-7.139231957678254 0 0)
(-1.384538791590242 0 0)
(6.67529392018893 0 0)
(14.8264424332605 0 0)
(21.45399980637573 0 0)
(24.47103489666726 0 0)
(21.49551417883888 0 0)
(11.57286708380233 0 0)
(-1.344958908887567 0 0)
(-9.974128944913014 0 0)
(-13.13685570401922 0 0)
(-11.5055222533932 0 0)
(-6.540773371548663 0 0)
(-0.7125204539993061 0 0)
(5.799206769466968 0 0)
(12.50354420520809 0 0)
(18.86346858984381 0 0)
(24.15872502626083 0 0)
(25.06288118845254 0 0)
(17.71611553137446 0 0)
(6.709450312109667 0 0)
(-5.382894037862788 0 0)
(-12.53501883291555 0 0)
(-12.63030498954117 0 0)
(-7.296646155639103 0 0)
(1.055771849153385 0 0)
(10.90568888801571 0 0)
(19.4144993136595 0 0)
(25.13977155655459 0 0)
(26.48899069538414 0 0)
(20.45623960572954 0 0)
(9.03586924511948 0 0)
(-1.902681882677513 0 0)
(-6.879455181933284 0 0)
(-4.990025817723723 0 0)
(1.822087746528086 0 0)
(9.802744637748507 0 0)
(16.47818189063683 0 0)
(18.63613542298575 0 0)
(15.93159277635503 0 0)
(9.492549617408468 0 0)
(2.794159265798168 0 0)
(-1.195708454145204 0 0)
(0.02582828412007971 0 0)
(5.03995443645795 0 0)
(11.20634845685347 0 0)
(15.06085409730027 0 0)
(14.27081926047953 0 0)
(9.92066247604574 0 0)
(3.518725604428206 0 0)
(0.260112801763773 0 0)
(2.424784642703878 0 0)
(5.717934756407963 0 0)
(10.72994381980309 0 0)
(12.91183590990406 0 0)
(11.03376138955072 0 0)
(7.245771373755 0 0)
(2.797315150307425 0 0)
(0.7784401839229848 0 0)
(2.435170737613772 0 0)
(7.560044912506024 0 0)
(11.38973415147164 0 0)
(16.12392796219152 0 0)
(15.60628316300996 0 0)
(8.9529278676257 0 0)
(1.527411948775787 0 0)
(-5.821555394806285 0 0)
(-8.884401028233222 0 0)
(-5.971931554735716 0 0)
(1.941488293593978 0 0)
(11.42487585541441 0 0)
(19.01865908934588 0 0)
(24.56313810608771 0 0)
(24.85928202867253 0 0)
(17.992517704016 0 0)
(5.251740431479065 0 0)
(-4.958117574880289 0 0)
(-10.67588335994546 0 0)
(-9.263837278243571 0 0)
(-3.02870522290916 0 0)
(6.744626189077199 0 0)
(14.87793402203518 0 0)
(21.60165179046933 0 0)
(25.04491220082791 0 0)
(22.71751957560773 0 0)
(14.42828146830395 0 0)
(6.414300661143612 0 0)
(-1.257834084495165 0 0)
(-5.389502126105688 0 0)
(-4.533552588868695 0 0)
(0.7837091722857543 0 0)
(7.691470751194367 0 0)
(12.45901467132194 0 0)
(14.72237798521823 0 0)
(12.29122788082071 0 0)
(7.931937692550501 0 0)
(5.989272991830589 0 0)
(7.937005222080463 0 0)
(10.17206523633954 0 0)
(11.76610665366889 0 0)
(11.84332374158175 0 0)
(11.20634533698466 0 0)
(9.033117149331495 0 0)
(7.770703421685388 0 0)
(2.648766936897678 0 0)
(-1.551082472216519 0 0)
(-1.798332283313798 0 0)
(2.465316728284995 0 0)
(6.813742311976465 0 0)
(10.16906653612497 0 0)
(13.36154043623996 0 0)
(15.94370041923016 0 0)
(18.62498124014527 0 0)
(17.86314161745806 0 0)
(18.02165694523744 0 0)
(10.54026786489727 0 0)
(2.354765179109757 0 0)
(-0.359802469284829 0 0)
(-1.365497118670404 0 0)
(-2.026952905109144 0 0)
(-0.4176437191225024 0 0)
(4.647953818333975 0 0)
(13.36544880398397 0 0)
(20.59709314031076 0 0)
(26.32059198124798 0 0)
(28.36190484947677 0 0)
(24.0282450759936 0 0)
(11.05517011198083 0 0)
(0.4556740384651458 0 0)
(-5.735502278892722 0 0)
(-7.131612301933415 0 0)
(-2.983527653811501 0 0)
(5.822021021490177 0 0)
(15.82279131734312 0 0)
(22.78377791491275 0 0)
(27.12865506265294 0 0)
(25.98172638047149 0 0)
(18.0267378304157 0 0)
(5.955275182898546 0 0)
(-2.063352699074288 0 0)
(-5.08388067401893 0 0)
(-2.208008533720935 0 0)
(4.7365866091524 0 0)
(12.68886296622678 0 0)
(18.59015084452489 0 0)
(21.82839055145058 0 0)
(19.43666901623597 0 0)
(11.59172791786015 0 0)
(4.048334232708476 0 0)
(-1.163976564949299 0 0)
(-1.476320848727185 0 0)
(2.599565114658298 0 0)
(9.234416757812681 0 0)
(15.78001570827321 0 0)
(19.33036710648124 0 0)
(18.9115164644052 0 0)
(13.12208661099729 0 0)
(4.348582403470036 0 0)
(-1.290243622443672 0 0)
(-2.544913598178947 0 0)
(0.7373322034275385 0 0)
(7.059086021989027 0 0)
(14.92716187796919 0 0)
(21.22279220083713 0 0)
(22.66049395938352 0 0)
(20.15007058078326 0 0)
(14.27828395075344 0 0)
(7.253382494940137 0 0)
(0.6306409629898432 0 0)
(-0.06547145443709677 0 0)
(2.140427491516308 0 0)
(5.817259989191189 0 0)
(9.776270280547079 0 0)
(12.7169595371953 0 0)
(14.05980528848926 0 0)
(13.61530884695289 0 0)
(12.27382125043813 0 0)
(10.88005176012685 0 0)
(10.15551465637373 0 0)
(8.003267815937633 0 0)
(6.469486911962043 0 0)
(3.708712653146072 0 0)
(2.071648813736292 0 0)
(2.428649535366434 0 0)
(5.517796897421244 0 0)
(9.720563932576573 0 0)
(14.02168545188103 0 0)
(16.58651776812249 0 0)
(16.1110231710377 0 0)
(13.40277759599861 0 0)
(9.095404680374978 0 0)
(4.146795424520701 0 0)
(2.010031470985643 0 0)
(2.69280530138166 0 0)
(6.262543895082125 0 0)
(9.782841246692088 0 0)
(13.84481161764238 0 0)
(14.74194844931944 0 0)
(13.29660827419012 0 0)
(9.43337300031992 0 0)
(4.740204703084792 0 0)
(1.023970242863555 0 0)
(0.9642072648018879 0 0)
(3.661880302119605 0 0)
(7.183246756243637 0 0)
(11.23929461363922 0 0)
(14.67297733433588 0 0)
(15.63973350991563 0 0)
(14.0312822855486 0 0)
(12.03496229713479 0 0)
(6.823662997195541 0 0)
(2.537349466768581 0 0)
(1.506685990113783 0 0)
(3.398618073875542 0 0)
(5.093955226357174 0 0)
(8.422395256765231 0 0)
(13.29780393076262 0 0)
(16.21640172809607 0 0)
(16.59259064006281 0 0)
(17.27285664709672 0 0)
(14.69006774164152 0 0)
(8.677774878382269 0 0)
(4.46405297527039 0 0)
(4.403397254789435 0 0)
(3.265222874756664 0 0)
(4.899415043432472 0 0)
(8.995572902832359 0 0)
(13.15895595290269 0 0)
(14.38243159166517 0 0)
(16.65224513001665 0 0)
(15.82952910321174 0 0)
(12.54983969127915 0 0)
(9.393279452892706 0 0)
(7.937712258015544 0 0)
(5.834041528626702 0 0)
(4.733553984031454 0 0)
(4.877250139284567 0 0)
(4.197501642885445 0 0)
(4.674788169551224 0 0)
(5.374994361705999 0 0)
(6.561131301813795 0 0)
(9.750971540438034 0 0)
(12.3976495350072 0 0)
(14.6736063821472 0 0)
(14.92660295413399 0 0)
(13.44656271741514 0 0)
(9.309114048578005 0 0)
(3.362246215109768 0 0)
(-1.597152287991056 0 0)
)
;

boundaryField
{
    inlet
    {
        type            zeroGradient;
    }
    outlet
    {
        type            pressureInletOutletVelocity;
        value           uniform (-1.597152287991056 0 0);
    }
    frontAndBack
    {
        type            empty;
    }
}


// ************************************************************************* //
