/*--------------------------------*- C++ -*----------------------------------*\
| =========                 |                                                 |
| \\      /  F ield         | OpenFOAM: The Open Source CFD Toolbox           |
|  \\    /   O peration     | Version:  v2012                                 |
|   \\  /    A nd           | Website:  www.openfoam.com                      |
|    \\/     M anipulation  |                                                 |
\*---------------------------------------------------------------------------*/
FoamFile
{
    version     2.0;
    format      ascii;
    class       volScalarField;
    location    "0.006";
    object      p;
}
// * * * * * * * * * * * * * * * * * * * * * * * * * * * * * * * * * * * * * //

dimensions      [1 -1 -2 0 0 0 0];


internalField   nonuniform List<scalar> 
1000
(
101315.5481358565
101314.1643326085
101306.2634621531
101299.8401069579
101294.7268968494
101289.8253252895
101286.3424239066
101284.2568191635
101281.8842709194
101276.7376478627
101272.7495533187
101270.440640725
101271.858037035
101276.0788065278
101282.0154883338
101284.1896766295
101288.0421400476
101291.2827473155
101294.6083726296
101299.2073412434
101305.3039762174
101311.8034107891
101315.4745091235
101323.2218239588
101336.1529109813
101347.6017522598
101354.1753665591
101359.0509952968
101361.7408038491
101360.9932320732
101361.0419389836
101365.1807148616
101373.9968218888
101378.9005654291
101382.3985777573
101380.797373606
101376.0075672899
101370.1416943855
101364.873450416
101361.5418956861
101359.8815339079
101358.2767747046
101355.6731161267
101351.5974331949
101344.6283108304
101333.5768255124
101320.9615386496
101311.7472952695
101306.7102583798
101302.9895864959
101298.0933245984
101291.4576519726
101283.9959047531
101277.5872849854
101274.3805214899
101274.0462599627
101273.823847426
101272.5347851319
101270.632544481
101270.9763348053
101274.3686510529
101280.3854316712
101286.3763400892
101290.2639561059
101291.869074025
101292.8126100116
101295.7173752344
101302.5286882436
101313.3756602202
101327.1627120086
101339.0510198064
101344.7125850169
101347.177290031
101351.3259381137
101359.8535551251
101370.2196121051
101376.1200069363
101377.2795792704
101375.6046329004
101373.4096881982
101373.4108504281
101374.5578831128
101377.4068930519
101378.4011002129
101376.6320077841
101372.4132947771
101366.0836054154
101358.3706878549
101351.6639434617
101348.2626484063
101346.1035445906
101342.0954742846
101334.7281961164
101324.3079722127
101311.4035791865
101297.3979180201
101285.3587903501
101278.703881726
101276.5870260703
101275.214716415
101275.810608685
101277.2160695699
101277.9005800997
101276.4989884091
101274.0360550846
101272.2684011976
101273.1719954505
101275.8722356909
101279.2617549996
101280.7025187985
101284.8050499063
101293.5151231551
101303.3544826078
101310.6148364964
101316.6617304341
101322.5433519788
101332.0100332161
101345.2947329643
101352.8914400526
101355.7783321471
101357.833848922
101360.0530667709
101362.8787223841
101369.7045801651
101375.9406177824
101377.5839927124
101378.9306418294
101378.1884889147
101375.5758553712
101372.0455969491
101369.5765649592
101369.0427576206
101369.7525624949
101369.7309370029
101367.8406763528
101363.2798309835
101355.313679547
101341.2647959228
101324.880319424
101315.4588305519
101311.0385010504
101305.8594580117
101296.6604526277
101282.7906848374
101272.3538401514
101271.2652178887
101272.0448717545
101273.2890746586
101273.411372903
101273.5368111274
101273.8807653342
101274.8963369144
101276.3308711853
101277.8371380486
101279.1381999311
101279.6652203713
101280.5544361536
101284.7042820986
101297.3059622251
101317.2990972516
101329.034863677
101331.133995069
101331.4829650459
101330.9718642661
101332.926575979
101340.7410779823
101357.1597676178
101369.9134443628
101372.4156684299
101372.1282827259
101371.3967499748
101371.473240012
101372.3091206562
101373.8036531878
101375.6209130193
101376.8651860869
101377.0924194291
101376.8388216666
101377.0524721184
101376.9571579947
101375.4323666893
101371.4960930428
101364.2625558998
101353.419501874
101339.269098927
101320.8624939517
101297.900348226
101279.6667969139
101274.899243007
101274.390479492
101274.760698815
101275.4242951031
101275.7864315149
101275.9002718301
101275.9799001191
101276.2101145025
101276.6176545203
101276.7320193645
101276.6067327119
101276.0580991389
101276.0683140738
101276.797028516
101278.5619434905
101281.6133743487
101289.1652827213
101304.1798614878
101319.7475170708
101326.6516187859
101329.2573872403
101331.8308459267
101336.9126717199
101349.0708158469
101364.0877947838
101369.5325292077
101370.0712062665
101370.3319837252
101370.4722393025
101370.5595436966
101371.8967301312
101375.1839535014
101378.1803261384
101378.9276769768
101378.7885957603
101378.4329448403
101378.2162474844
101377.8374779979
101376.5645002732
101373.6117225552
101368.2469868743
101359.7510427645
101346.1546871719
101323.1225159162
101293.2757503592
101277.8685880495
101276.1328857242
101276.0815368759
101276.0218452826
101276.1726964749
101276.4785164706
101276.709335795
101276.6183026826
101276.2793436356
101275.876964616
101275.2738624444
101274.4834078453
101274.0767758088
101274.0148051354
101273.8216747975
101273.784523295
101273.9775995697
101274.5918638174
101276.0830916838
101279.628393156
101290.2022668136
101317.7841870807
101357.0318447873
101374.1369884531
101375.4440484684
101375.5441960428
101375.3530631005
101375.0800087167
101374.9443730512
101374.8919577922
101374.8006448185
101374.7469809142
101374.6619124888
101374.7809251112
101374.9602442819
101375.0652436906
101374.9775221434
101374.8388863073
101374.7663340527
101374.7723216525
101374.7310851076
101374.2251286059
101372.3204396009
101367.1845042639
101350.3828269232
101312.9732037287
101278.3298785922
101270.9369662365
101270.6579307102
101270.7394829084
101270.9062936267
101271.0059984429
101271.1043777686
101271.2367801122
101271.3679625627
101271.4525437666
101271.4385107707
101271.4383763053
101271.5434308498
101271.7328321299
101271.9028252932
101272.143919846
101272.73840052
101273.9161954681
101276.1662034133
101281.3796267606
101294.9494923299
101325.2099758166
101360.1171123541
101371.1839448237
101371.7555671412
101371.7706623416
101371.7025852504
101371.6542280264
101371.7513313552
101371.8857553718
101372.107085588
101373.2343963855
101375.2873498034
101377.6006470905
101378.4170334572
101378.6537502432
101378.5110958605
101378.1653259519
101378.1173215916
101378.4580198662
101377.7261707249
101376.486349156
101375.9269639423
101369.5003035651
101350.1566197677
101309.6598998461
101277.3173427522
101271.8704108424
101271.7476939094
101271.7552469879
101271.7322892277
101271.7231075804
101271.7666025571
101271.8661638861
101271.9489664879
101272.0314577735
101272.0524308437
101272.0362764686
101271.9939619237
101271.9713152982
101272.0162077066
101272.1386197931
101272.3410519945
101272.6362029747
101273.2413545606
101275.0435161409
101280.8088104758
101298.1719167383
101335.7613917614
101370.2066958929
101377.4919129012
101377.7020218756
101377.6981452368
101377.6595857579
101377.6128622821
101377.5856405656
101377.5443371821
101377.4734326852
101377.4120902214
101377.3892872187
101377.3879313509
101377.3699131415
101377.3312681171
101377.2909880007
101377.2304039132
101377.0842873613
101376.795857628
101376.222114034
101374.8219238338
101370.7987155447
101358.5383724333
101327.5075495752
101287.0135951785
101272.1759485684
101271.3365524062
101271.3295425386
101271.3201657501
101271.3334042089
101271.3738736153
101271.4213965117
101271.4398454622
101271.5575266271
101271.7324902147
101271.8076183772
101271.799429862
101271.7891651763
101271.8603619472
101271.9330809739
101271.8572840107
101271.9919347915
101272.6023223492
101273.3799068471
101277.4510009459
101289.9683361719
101322.0213433882
101363.2218629775
101377.8872911527
101378.6738687575
101378.6630507911
101378.6433539052
101378.6523584413
101378.6418870057
101378.6043332995
101378.5436996644
101378.4729422707
101378.2102941537
101377.6783031666
101376.9667707566
101376.4014101034
101376.1341904046
101375.9910599754
101375.864752745
101375.7180930669
101375.3259577269
101374.313702186
101371.5697619582
101362.7643223455
101338.5743124768
101297.5736728654
101274.1174653951
101271.5937241174
101271.5492619959
101271.5929684591
101271.6442836803
101271.6383865766
101271.6666101943
101271.8203507959
101272.0740087864
101272.5607999345
101273.490831407
101274.4616224858
101274.926863643
101275.0533959438
101275.1153614249
101275.2950780447
101275.5871578363
101275.9787415788
101276.969711663
101279.4325256498
101285.7034911377
101303.7685183978
101340.689413768
101372.0864602498
101378.1183743349
101378.2799227255
101378.3206538036
101378.267243553
101378.1339201236
101377.9641987249
101377.8152011411
101377.1567360142
101375.9831915671
101375.1117165096
101374.9350018124
101374.9267495711
101374.8260899076
101374.6973300247
101374.7514776914
101374.723845071
101374.368753283
101373.6215823444
101372.4366397131
101366.7350413466
101351.0179520189
101315.4030361263
101280.1791122213
101271.7007333158
101271.416177362
101271.5323407153
101271.6102764241
101271.6789446091
101272.113420983
101272.9837588092
101274.1756718745
101275.4246186232
101276.0143176295
101276.2578605756
101276.1528272939
101275.842318611
101276.1408223899
101276.7302273233
101276.9727318139
101276.6541882956
101277.4621342516
101279.6091304186
101281.817342888
101292.8661293661
101321.0078582493
101360.8666740852
101377.5234843468
101378.7697883021
101378.8970497636
101378.7026159222
101378.3904299727
101378.2119076784
101377.682889327
101376.1669632688
101374.546094567
101374.0164212404
101374.0712847097
101374.1029697366
101373.9889579959
101373.9831282343
101374.349354527
101373.9050918311
101373.0720791812
101372.7115941833
101372.2825204087
101368.1935393289
101358.996190692
101331.9278112067
101291.3215225343
101272.8612976304
101271.4530706515
101271.5051315484
101271.5438513957
101271.6307741141
101272.073585861
101272.883738752
101274.0827772315
101275.3290611657
101275.8572046714
101276.0694438309
101275.8000128953
101275.4719601986
101275.6442779575
101276.1005597389
101276.1726218016
101275.8905977205
101276.7406120306
101278.6439802656
101280.226807732
101289.5784004305
101314.2214238604
101354.5748829547
101375.9411751317
101378.0922563766
101378.2151256116
101378.0301483644
101377.757656591
101377.6464237389
101377.1388026356
101375.8382970133
101374.5324127096
101374.1185952399
101374.1302255839
101374.0820173487
101374.0640998944
101374.166065093
101374.437926188
101373.9474898607
101373.2131133594
101373.1458317074
101372.6758787968
101369.2344860363
101362.3618860428
101339.8503969445
101299.8104513137
101275.269767886
101272.4053955657
101272.3739870868
101272.3460759176
101272.4788967855
101272.9606975221
101273.6439515197
101274.6599307031
101275.5685913919
101275.9468055323
101276.1069272882
101275.8492023151
101275.5660242447
101275.8555603205
101276.2791660968
101276.1711951588
101276.0806002756
101276.9078760253
101278.3876224203
101279.351061949
101286.4001753239
101305.5510144095
101343.8790072268
101372.7147588011
101377.348968545
101377.4934549048
101377.3556045162
101377.1115484863
101376.8720349281
101375.9334444043
101374.7292645135
101374.286322135
101374.3462452253
101374.4320596106
101374.2166694206
101374.0174110626
101374.2140562826
101374.1877555561
101373.6052551135
101372.9932451799
101373.2052359521
101372.6369885808
101369.8792677819
101365.3699001425
101348.435085831
101311.9776967947
101279.5879318334
101273.0966789397
101272.9157809865
101272.8695497327
101273.0044101293
101273.5229040075
101274.2512536721
101275.2258269447
101275.7113625321
101275.8595785305
101275.8638754564
101275.6846210524
101275.6869984477
101276.046892009
101276.3513840365
101276.0948643403
101276.2624997912
101277.0763452835
101278.0640530989
101278.6028721656
101283.813060205
101297.5748117083
101330.9863033536
101367.0839376738
101376.8845278916
101377.2776901195
101377.1726913891
101377.0296151423
101376.8455563339
101375.9987053453
101374.7817706917
101374.1772037155
101374.1609519788
101374.1770175585
101373.9897947943
101373.9206412782
101374.1796172257
101373.9900817104
101373.4388113338
101373.0603412822
101373.4217103743
101372.6875403853
101370.4250667783
101367.7503994349
101355.5235158699
101325.1165959874
101286.767061634
101273.6078093555
101272.8726736696
101272.7930781832
101272.9361470221
101273.3784289488
101273.9567209826
101275.0882452276
101275.9202353832
101276.1153649571
101276.0404725908
101275.846934275
101275.94345552
101276.2642733784
101276.3776401891
101276.1112976357
101276.4975403821
101277.2831519164
101277.7383497284
101278.1365059374
101282.0827050206
101291.3710649886
101318.1096611133
101357.9319029178
101375.8913466757
101377.2491877519
101377.2015648793
101377.1397599984
101376.9903465717
101376.239851262
101375.0811511584
101374.2110287419
101374.0314971659
101373.9799193856
101373.8661080516
101373.9154371614
101374.1264371899
101373.8020274578
101373.2749231517
101373.2166753872
101373.469136691
101372.623724645
101370.8129550067
101369.3951435101
101360.6975791953
101337.2700228475
101297.4259614155
101275.0969924141
101272.7207128125
101272.6144958613
101272.7601441483
101273.105555572
101273.5098188745
101274.6892417801
101275.9034842007
101276.233019978
101276.1397202487
101275.9933913052
101276.1639043474
101276.4131202568
101276.3087702483
101276.2161749726
101276.7453157708
101277.4423989222
101277.4393303867
101277.905238689
101280.9736907936
101286.8541828075
101306.8001241938
101345.4530697942
101373.348461601
101377.4698959774
101377.5328035835
101377.5460272278
101377.3943226691
101376.7216714387
101375.6871925918
101374.4457589252
101373.9104183922
101373.7459582738
101373.6480038039
101373.813644531
101373.9209607166
101373.5377041328
101373.1368001113
101373.3425920167
101373.3092114648
101372.4402935914
101371.1435569023
101370.4504073602
101364.2626651628
101347.3954285218
101310.7059203791
101278.8427653021
101272.5992870673
101272.3998072448
101272.5306867213
101272.7590967484
101273.0607117537
101274.2176584418
101275.7115187123
101276.2845152106
101276.2459075273
101276.1740975722
101276.3669357667
101276.4560029172
101276.208778189
101276.3382058958
101276.9066734584
101277.3951742734
101277.0505834086
101277.7435824775
101280.2851574979
101283.7484571269
101298.1545635207
101331.6501596099
101367.7456992518
101377.5194151247
101377.951450205
101378.0474732913
101377.8633575477
101377.3164597096
101376.6392219794
101375.1939606651
101373.8141579106
101373.3662374806
101373.2975661476
101373.5250167288
101373.6475374319
101373.3644537733
101373.1748838761
101373.5063953356
101373.1477908732
101372.2612187627
101371.5694368577
101371.1631936547
101366.6077818018
101355.2519926735
101324.9759831912
101286.2375667446
101272.6543713741
101271.910170171
101272.0255306979
101272.1783130233
101272.2535155964
101272.8633954544
101274.2307160992
101275.9699186557
101276.82546618
101276.9978421556
101277.1348816602
101276.9914600172
101276.741295273
101276.6926408282
101277.0869067771
101277.4104049937
101277.1355730515
101277.6704646143
101279.4355391263
101281.6739055981
101291.6447946533
101318.2798148671
101358.2005506135
101376.1935787029
101377.5329667013
101377.5409426328
101377.5411033462
101377.5397523092
101377.538195637
101377.5303046456
101377.5091806475
101377.4548755222
101377.3260734217
101377.0493468017
101376.5375276931
101375.7451344828
101374.6341133522
101372.8924040835
101369.3031107685
101360.5164869663
101343.1444928767
101328.1009555341
101325.0735904281
101325.0000916275
101325.0000000019
101324.9999999997
101324.9999999997
101324.9999999996
101325
101325.0000000009
101325.0000000018
101325.0000000021
101325.0000000021
101325.000000002
101325.000000002
101325.0000000019
101325.0000000018
101325.0000000018
101325.0000000018
101325.0000000019
101325.000000002
101325.0000000021
101325.0000000022
101325.0000000023
101325.0000000023
101325.0000000023
101325.0000000024
101325.0000000024
101325.0000000024
101325.0000000023
101325.0000000023
101325.0000000022
101325.0000000021
101325.000000002
101325.000000002
101325.000000002
101325.000000002
101325.0000000021
101325.0000000022
101325.0000000022
101325.0000000022
101325.0000000021
101325.000000002
101325.000000002
101325.0000000021
101325.000000002
101325.000000002
101325.0000000019
101325.0000000019
101325.0000000019
101325.0000000019
101325.0000000019
101325.0000000019
101325.0000000021
101325.0000000021
101325.0000000023
101325.0000000022
101325.0000000023
101325.0000000023
101325.0000000024
101325.0000000023
101325.0000000023
101325.0000000023
101325.0000000023
101325.0000000023
101325.0000000023
101325.0000000023
101325.0000000024
101325.0000000024
101325.0000000024
101325.0000000025
101325.0000000026
101325.0000000025
101325.0000000026
101325.0000000025
101325.0000000025
101325.0000000025
101325.0000000025
101325.0000000024
101325.0000000024
101325.0000000024
101325.0000000025
101325.0000000026
101325.0000000027
101325.0000000027
101325.0000000027
101325.0000000028
101325.0000000028
101325.0000000027
101325.0000000027
101325.0000000027
101325.0000000026
101325.0000000026
101325.0000000025
101325.0000000024
101325.0000000023
101325.0000000021
101325.000000002
101325.0000000021
101325.0000000021
101325.000000002
101325.0000000019
101325.0000000019
101325.000000002
101325.000000002
101325.000000002
101325.0000000021
101325.000000002
101325.000000002
101325.000000002
101325.0000000021
101325.000000002
101325.000000002
101325.0000000021
101325.0000000022
101325.0000000022
101325.0000000023
101325.0000000024
101325.0000000023
101325.0000000023
101325.0000000023
101325.0000000024
101325.0000000024
101325.0000000025
101325.0000000025
101325.0000000025
101325.0000000025
101325.0000000024
101325.0000000023
101325.0000000024
101325.0000000024
101325.0000000025
101325.0000000025
101325.0000000024
101325.0000000025
101325.0000000025
101325.0000000025
101325.0000000025
101325.0000000025
101325.0000000025
101325.0000000026
101325.0000000026
101325.0000000026
101325.0000000026
101325.0000000027
101325.0000000027
101325.0000000028
101325.0000000028
101325.0000000028
101325.0000000027
101325.0000000027
101325.0000000027
101325.0000000026
101325.0000000026
101325.0000000025
101325.0000000025
101325.0000000023
101325.0000000021
101325.0000000021
101325.0000000021
101325.0000000021
101325.0000000021
101325.0000000021
101325.000000002
101325.000000002
101325.0000000019
101325.0000000019
101325.0000000019
101325.0000000019
101325.0000000019
101325.0000000018
)
;

boundaryField
{
    inlet
    {
        type            uniformFixedValue;
        uniformValue    sine;
        uniformValueCoeffs
        {
            frequency       constant 3000;
            scale           constant 50;
            level           constant 101325;
        }
        value           uniform 101325;
    }
    outlet
    {
        type            waveTransmissive;
        gamma           1.4;
        fieldInf        101325;
        lInf            2.25;
        value           uniform 101325.0000000018;
    }
    frontAndBack
    {
        type            empty;
    }
}


// ************************************************************************* //
