/*--------------------------------*- C++ -*----------------------------------*\
| =========                 |                                                 |
| \\      /  F ield         | OpenFOAM: The Open Source CFD Toolbox           |
|  \\    /   O peration     | Version:  v2012                                 |
|   \\  /    A nd           | Website:  www.openfoam.com                      |
|    \\/     M anipulation  |                                                 |
\*---------------------------------------------------------------------------*/
FoamFile
{
    version     2.0;
    format      ascii;
    class       volScalarField;
    location    "0.006";
    object      pMean;
}
// * * * * * * * * * * * * * * * * * * * * * * * * * * * * * * * * * * * * * //

dimensions      [1 -1 -2 0 0 0 0];


internalField   nonuniform List<scalar> 
1000
(
101324.9885899176
101325.0010301768
101325.0135172042
101325.0462143367
101325.0710666733
101325.099043278
101325.1454086926
101325.2221240872
101325.2774711589
101325.3133328568
101325.3827309116
101325.4343635164
101325.4702547651
101325.5459007029
101325.6291211221
101325.6730911857
101325.7202279896
101325.7779038202
101325.810373891
101325.80829295
101325.8469511189
101325.8846170703
101325.9052033438
101325.9072586149
101325.9039600024
101325.8892218422
101325.8466470543
101325.8086476818
101325.7774296447
101325.752018893
101325.6953451105
101325.646069254
101325.5969179872
101325.5291996456
101325.4608055716
101325.4039199361
101325.3450916139
101325.2797671514
101325.2258588168
101325.1751203341
101325.1326932176
101325.1002026068
101325.0585506287
101325.0209587872
101324.9987527427
101324.9759358969
101324.9656650337
101324.9744408116
101325.0017958426
101325.0185621583
101325.0555518975
101325.0853700923
101325.1234807357
101325.1813104435
101325.2275098362
101325.2904741607
101325.3696819279
101325.418410317
101325.4913954833
101325.5513631668
101325.6050439485
101325.6671297071
101325.7239381996
101325.7746671462
101325.8162126225
101325.857492641
101325.8849022358
101325.9095968933
101325.9478858168
101325.9502401058
101325.9433670455
101325.9425269926
101325.9047641196
101325.8668524598
101325.8359816968
101325.7883698015
101325.733400585
101325.676362905
101325.6193311508
101325.5587046341
101325.4931737416
101325.4291512709
101325.3683152645
101325.309177609
101325.2479625566
101325.1992745481
101325.1410910458
101325.0833445686
101325.0501789419
101325.01812247
101324.9885278078
101324.9694121134
101324.9613040668
101324.9423979715
101324.9444900884
101324.9713190274
101325.006865753
101325.0547505111
101325.1154885285
101325.1779838593
101325.2292972012
101325.2841679184
101325.3544747004
101325.4063771354
101325.4618869338
101325.5280116977
101325.587811283
101325.6397982384
101325.7075235683
101325.7712139987
101325.8155253024
101325.8578894619
101325.8916321592
101325.9064433943
101325.9247144948
101325.9380673513
101325.9382402061
101325.924559606
101325.8928499952
101325.8523615362
101325.8154165912
101325.7788074807
101325.7342947052
101325.6865108513
101325.6295097855
101325.5639157745
101325.4985163582
101325.4389599742
101325.3787450553
101325.3146561554
101325.2568676951
101325.2030888111
101325.1489300447
101325.0966532014
101325.0481483931
101324.9988846261
101324.9505111722
101324.9181418695
101324.902413833
101324.9076770445
101324.9260766011
101324.9434067626
101324.9687919365
101325.0086320641
101325.0619505974
101325.1213224704
101325.1870458195
101325.253901687
101325.3164897972
101325.3789034472
101325.4377833935
101325.4973724141
101325.5554243411
101325.6109556094
101325.6704989325
101325.728263991
101325.7847995401
101325.8317242045
101325.8760351142
101325.9003417319
101325.9014574367
101325.8964928106
101325.8939007216
101325.8878673841
101325.876096837
101325.862668981
101325.8403021866
101325.7934214859
101325.739103944
101325.6841132107
101325.6295594092
101325.5705461461
101325.5145504625
101325.4589686774
101325.4008141698
101325.3394571421
101325.2780137763
101325.2130419927
101325.1515550695
101325.0892251162
101325.0278969644
101324.9701738178
101324.9179377432
101324.8718162783
101324.8431079395
101324.8336600004
101324.8485337337
101324.8891495894
101324.9478077084
101325.007095786
101325.0671613369
101325.1275123474
101325.1881508823
101325.2466593923
101325.3063194559
101325.3633372951
101325.4222959608
101325.4798507436
101325.5400660957
101325.5978226757
101325.655478809
101325.7133840839
101325.7707622169
101325.8264841445
101325.8771137062
101325.9137591576
101325.9294362484
101325.9323213851
101325.9290269096
101325.9238706729
101325.9155025682
101325.8962729996
101325.8581269305
101325.8089994034
101325.7539368778
101325.699964804
101325.6455092741
101325.5924216609
101325.5347894978
101325.4785806299
101325.4157099121
101325.3524212331
101325.2867241008
101325.2234097264
101325.1567192876
101325.0942688783
101325.0299951103
101324.9702506
101324.9129376431
101324.8643835679
101324.8258229815
101324.8099700925
101324.8236016073
101324.8719318112
101324.928786207
101324.9880659803
101325.0456283789
101325.1046498705
101325.1620628669
101325.2205984263
101325.2788695492
101325.3371210086
101325.3949123391
101325.4541522863
101325.5145290792
101325.5752294053
101325.6376860158
101325.6986566386
101325.7607873997
101325.8202169116
101325.8826582489
101325.9411354567
101326.001144231
101326.0501752343
101326.0826000637
101326.0700509384
101326.0222853471
101325.9608305328
101325.9022012486
101325.8411232387
101325.7810475565
101325.7207310786
101325.661123579
101325.601625975
101325.5417987181
101325.482419012
101325.4221278359
101325.3631694973
101325.3024315081
101325.2436241248
101325.1825532701
101325.1244172196
101325.0629092253
101325.0051652923
101324.9446638123
101324.8877944016
101324.8316593588
101324.7878944281
101324.7735540438
101324.8074503564
101324.8691321327
101324.9334235535
101324.9991382838
101325.0640077064
101325.1295901898
101325.1939091432
101325.2590017815
101325.3231107901
101325.3882882292
101325.4524640407
101325.5166971526
101325.5810283247
101325.6446841557
101325.70973958
101325.7727718566
101325.8367913525
101325.898429247
101325.9597031299
101326.015904536
101326.0643087478
101326.0873376252
101326.0701527947
101326.0193563546
101325.9649414117
101325.907645177
101325.8530716872
101325.7955838098
101325.7412005905
101325.6835608169
101325.6292415752
101325.5702428343
101325.5142092692
101325.449696709
101325.3888115422
101325.321705436
101325.2606495083
101325.1929983207
101325.1318221952
101325.0646138096
101325.004677386
101324.9380297056
101324.8788847247
101324.818625663
101324.7737449844
101324.76023855
101324.7979054641
101324.858391046
101324.9227138025
101324.9863164299
101325.0503255642
101325.1140383722
101325.1776312191
101325.2415111284
101325.3046967126
101325.36891844
101325.4318163224
101325.4962833302
101325.5588423385
101325.6234890763
101325.6855487497
101325.7503541946
101325.8121107372
101325.8769868615
101325.9380573679
101326.0013102903
101326.0573469797
101326.1055277796
101326.1198216143
101326.0895999356
101326.0286299728
101325.9671727922
101325.9026648578
101325.8410547227
101325.7766383497
101325.7148791074
101325.6507401161
101325.5889309034
101325.5250706846
101325.4632453284
101325.3996218557
101325.3376020841
101325.2742392578
101325.2120499969
101325.1489550384
101325.0867933404
101325.0242167097
101324.9624764077
101324.9014491545
101324.8431017797
101324.7927644163
101324.7651014323
101324.7827316814
101324.8379290603
101324.9022342109
101324.9663490551
101325.0311366405
101325.0951386408
101325.1599192407
101325.2237745322
101325.2886125231
101325.3521764815
101325.4168774927
101325.4800495133
101325.5446656961
101325.6076406514
101325.6722429825
101325.7351652844
101325.799882743
101325.8623434055
101325.9267571579
101325.9885886327
101326.0494561513
101326.1014888819
101326.1306699394
101326.1129598699
101326.0576843314
101325.9932741029
101325.9291731106
101325.8644296431
101325.8003373075
101325.7356809003
101325.671650677
101325.6070112673
101325.5430398985
101325.4787522502
101325.4153269216
101325.3521368849
101325.2902435451
101325.2284733811
101325.1673575316
101325.106012047
101325.0451911231
101324.9843586854
101324.9244664478
101324.8660924073
101324.8137209019
101324.7774979985
101324.7807617142
101324.8276982783
101324.8910347476
101324.9547723162
101325.0192481995
101325.0829979522
101325.1474635724
101325.211047658
101325.2753482887
101325.3387600463
101325.4025003245
101325.4645713636
101325.5264148246
101325.5864719393
101325.6470284263
101325.7064493869
101325.7666702952
101325.8258405343
101325.8855523601
101325.9433787775
101326.0007534557
101326.0528627231
101326.093420541
101326.1025987517
101326.0665468786
101326.0053985016
101325.9417389409
101325.8774943367
101325.81388262
101325.7498411469
101325.6862269196
101325.6225015894
101325.5597111963
101325.4973938465
101325.4366985232
101325.376547213
101325.3167562065
101325.2570045038
101325.1970280028
101325.137333733
101325.077650152
101325.018659736
101324.958969891
101324.9012934158
101324.8468366059
101324.8018779733
101324.7867153286
101324.8165797076
101324.8769496922
101324.9402595589
101325.005287666
101325.0688635717
101325.1335442695
101325.1964473189
101325.260499342
101325.3218422017
101325.3827391311
101325.4410736204
101325.5005318333
101325.5586635933
101325.6180899667
101325.6757389889
101325.7349348085
101325.7926837427
101325.8510238723
101325.9070894966
101325.9641993441
101326.0184919864
101326.0645617574
101326.0935451756
101326.0770146988
101326.0247729504
101325.9591004912
101325.8962528518
101325.8302215812
101325.767499803
101325.7016665556
101325.6398531806
101325.5757887724
101325.5165820325
101325.4557500576
101325.3986290325
101325.3384351774
101325.2809763773
101325.2202361619
101325.1629783105
101325.1031403513
101325.0461651207
101324.9861790537
101324.9311235067
101324.875748172
101324.8264953329
101324.7976551477
101324.8082561771
101324.8612258734
101324.9238952905
101324.9890851644
101325.0525223054
101325.1174009775
101325.1802231758
101325.2445333412
101325.3057552087
101325.3669218414
101325.4252679608
101325.4851328019
101325.543392461
101325.6032620403
101325.6614703076
101325.721432204
101325.7799606128
101325.8390773179
101325.8960901892
101325.954424936
101326.0098306489
101326.0585703189
101326.0931063807
101326.0851964737
101326.0379976573
101325.9736303772
101325.9115930089
101325.846368737
101325.7843295048
101325.7193734184
101325.658200385
101325.5946684579
101325.5356575975
101325.4748852388
101325.4176194853
101325.357407841
101325.2997478595
101325.2390722788
101325.1816600916
101325.1217119596
101325.0643200535
101325.0043459463
101324.9488575041
101324.8925668078
101324.8412273076
101324.8064019422
101324.8060700111
101324.8520095708
101324.9127946712
101324.9770341729
101325.0392865992
101325.1032604029
101325.1650021342
101325.228464874
101325.2885678159
101325.3494267062
101325.4074471362
101325.4674769274
101325.5254245084
101325.585334968
101325.6432590347
101325.7033692511
101325.7613583678
101325.8204690113
101325.8772259924
101325.9359902145
101325.9912564795
101326.042455654
101326.0827150435
101326.0876148534
101326.0494013285
101325.9875691955
101325.9259672071
101325.8619056872
101325.8002524894
101325.7365349016
101325.6761868509
101325.614224406
101325.5560822682
101325.4955116066
101325.4378072966
101325.3773503319
101325.3194600467
101325.2589435472
101325.201796534
101325.1419480208
101325.0847486685
101325.025211375
101324.9698855548
101324.9129546889
101324.8602908734
101324.8193054081
101324.8061345544
101324.8406300966
101324.8989149554
101324.9623098413
101325.0239876614
101325.0872582895
101325.1485040904
101325.2111794769
101325.2704564139
101325.3308756872
101325.3888581842
101325.4491041193
101325.5071448428
101325.5671064449
101325.624895159
101325.685073894
101325.7426284889
101325.8017118318
101325.8584170081
101325.9174995693
101325.972671966
101326.0258532945
101326.0712125264
101326.0888562764
101326.0634701558
101326.0051871456
101325.9438381141
101325.880068185
101325.8185330749
101325.7550379591
101325.6945906132
101325.6325138037
101325.5744202546
101325.5141141821
101325.4566637607
101325.3963748058
101325.3387001061
101325.2784816248
101325.2214890232
101325.1615881186
101325.1044672175
101325.0451422123
101324.9898122624
101324.9320690587
101324.8785824497
101324.8326978261
101324.8077998874
101324.8280254181
101324.8820261221
101324.9451691121
101325.0070142827
101325.0703530762
101325.1319458444
101325.194817193
101325.254542407
101325.3149994522
101325.3729647933
101325.43293401
101325.4908005854
101325.5506048142
101325.6083801096
101325.6685073367
101325.7256994551
101325.7848966044
101325.8415472866
101325.9009393686
101325.9557654546
101326.0107427096
101326.0594610595
101326.0883132547
101326.0777586608
101326.0262713571
101325.9648770384
101325.9015815791
101325.8394959814
101325.7764800251
101325.7152452579
101325.6533353256
101325.594548199
101325.5349231431
101325.4771023464
101325.417464809
101325.3594095947
101325.2999894572
101325.2424898896
101325.1830970306
101325.1255147819
101325.067058391
101325.0109798957
101324.9532350479
101324.8986722101
101324.8499054233
101324.8148670246
101324.820265176
101324.8658407478
101324.9289043978
101324.9903169904
101325.0543521439
101325.1156843134
101325.1793081333
101325.2389468064
101325.3002274575
101325.3575575395
101325.4177405604
101325.4748008093
101325.5348745058
101325.592081068
101325.6523440409
101325.7088562926
101325.768311356
101325.8247205597
101325.8840890317
101325.9386337841
101325.9948147419
101326.0457979453
101326.0832108393
101326.0881545567
101326.0469767579
101325.9864102693
101325.9229110072
101325.860219426
101325.7969776561
101325.734861599
101325.6725445656
101325.6129371237
101325.5535466187
101325.4954470757
101325.4363818902
101325.3782116905
101325.3194666475
101325.2615830163
101325.2026671824
101325.1448812965
101325.0871106445
101325.0304161483
101324.9728024859
101324.9176174247
101324.8668741581
101324.8242629078
101324.8153148918
101324.8485999344
101324.910262095
101324.9713634382
101325.0361606689
101325.0973593617
101325.1617683613
101325.2215307153
101325.2837899003
101325.3407217715
101325.4011197662
101325.4575421645
101325.5179235801
101325.5746353704
101325.6350394544
101325.6910862033
101325.7510058384
101325.807216861
101325.866654152
101325.9210338244
101325.9784427466
101326.0306236766
101326.0741881277
101326.0927981057
101326.0653111873
101326.0076590112
101325.943851353
101325.8806880986
101325.8169321957
101325.7541109753
101325.6909365083
101325.6303467803
101325.5703951133
101325.5125626153
101325.4538419658
101325.3963334319
101325.3379248046
101325.2801330861
101325.2212421106
101325.1637695889
101325.1060330941
101325.0491606351
101324.9913449112
101324.9362384702
101324.8837168009
101324.8361369654
101324.8142535181
101324.8323079288
101324.8896319798
101324.9510709428
101325.0165546788
101325.0783788959
101325.1435895741
101325.204557563
101325.2686352333
101325.3269165613
101325.3871015927
101325.4427732417
101325.5022120799
101325.5580910078
101325.617694255
101325.6734863324
101325.7329612281
101325.7890612522
101325.8481555727
101325.9028995764
101325.9606322263
101326.0139464608
101326.0622803868
101326.0916132078
101326.0801703183
101326.0288212052
101325.9663465346
101325.9033149234
101325.8402850369
101325.7772505836
101325.7142198079
101325.6511917438
101325.5881776505
101325.5252003854
101325.4623152063
101325.3996397436
101325.3373861629
101325.2758500768
101325.2153605681
101325.1563874306
101325.1001341105
101325.0501940601
101325.0150208826
101325.0015783026
101325.0000262774
101325.0000000276
101325.0000000012
101325.0000000012
101325.0000000013
101325.0000000012
101325.0000000013
101325.0000000013
101325.0000000013
101325.0000000013
101325.0000000013
101325.0000000013
101325.0000000013
101325.0000000013
101325.0000000013
101325.0000000013
101325.0000000013
101325.0000000013
101325.0000000013
101325.0000000013
101325.0000000013
101325.0000000013
101325.0000000013
101325.0000000012
101325.0000000013
101325.0000000012
101325.0000000012
101325.0000000013
101325.0000000013
101325.0000000013
101325.0000000013
101325.0000000013
101325.0000000013
101325.0000000013
101325.0000000013
101325.0000000013
101325.0000000013
101325.0000000014
101325.0000000013
101325.0000000013
101325.0000000013
101325.0000000013
101325.0000000013
101325.0000000013
101325.0000000013
101325.0000000013
101325.0000000013
101325.0000000013
101325.0000000013
101325.0000000013
101325.0000000013
101325.0000000013
101325.0000000013
101325.0000000013
101325.0000000013
101325.0000000014
101325.0000000013
101325.0000000013
101325.0000000013
101325.0000000013
101325.0000000013
101325.0000000013
101325.0000000013
101325.0000000014
101325.0000000013
101325.0000000013
101325.0000000013
101325.0000000013
101325.0000000014
101325.0000000014
101325.0000000013
101325.0000000014
101325.0000000014
101325.0000000014
101325.0000000014
101325.0000000014
101325.0000000014
101325.0000000014
101325.0000000014
101325.0000000014
101325.0000000014
101325.0000000014
101325.0000000014
101325.0000000014
101325.0000000014
101325.0000000014
101325.0000000014
101325.0000000014
101325.0000000014
101325.0000000014
101325.0000000014
101325.0000000014
101325.0000000014
101325.0000000014
101325.0000000014
101325.0000000014
101325.0000000014
101325.0000000014
101325.0000000014
101325.0000000014
101325.0000000014
101325.0000000014
101325.0000000014
101325.0000000014
101325.0000000014
101325.0000000014
101325.0000000014
101325.0000000014
101325.0000000014
101325.0000000014
101325.0000000014
101325.0000000014
101325.0000000014
101325.0000000014
101325.0000000014
101325.0000000014
101325.0000000014
101325.0000000014
101325.0000000014
101325.0000000014
101325.0000000014
101325.0000000014
101325.0000000014
101325.0000000014
101325.0000000014
101325.0000000014
101325.0000000014
101325.0000000014
101325.0000000014
101325.0000000014
101325.0000000014
101325.0000000014
101325.0000000014
101325.0000000014
101325.0000000014
101325.0000000014
101325.0000000014
101325.0000000014
101325.0000000014
101325.0000000014
101325.0000000014
101325.0000000014
101325.0000000014
101325.0000000014
101325.0000000014
101325.0000000014
101325.0000000014
101325.0000000014
101325.0000000015
101325.0000000015
101325.0000000015
101325.0000000015
101325.0000000015
101325.0000000015
101325.0000000015
101325.0000000015
101325.0000000015
101325.0000000015
101325.0000000015
101325.0000000015
101325.0000000015
101325.0000000015
101325.0000000015
101325.0000000015
101325.0000000015
101325.0000000015
101325.0000000015
101325.0000000015
101325.0000000014
)
;

boundaryField
{
    inlet
    {
        type            calculated;
        value           uniform 101324.9999999998;
    }
    outlet
    {
        type            calculated;
        value           uniform 101325.0000000014;
    }
    frontAndBack
    {
        type            empty;
    }
}


// ************************************************************************* //
