/*--------------------------------*- C++ -*----------------------------------*\
| =========                 |                                                 |
| \\      /  F ield         | OpenFOAM: The Open Source CFD Toolbox           |
|  \\    /   O peration     | Version:  v2012                                 |
|   \\  /    A nd           | Website:  www.openfoam.com                      |
|    \\/     M anipulation  |                                                 |
\*---------------------------------------------------------------------------*/
FoamFile
{
    version     2.0;
    format      ascii;
    class       volScalarField;
    location    "0.006";
    object      T;
}
// * * * * * * * * * * * * * * * * * * * * * * * * * * * * * * * * * * * * * //

dimensions      [0 0 0 1 0 0 0];


internalField   nonuniform List<scalar> 
1000
(
299.9923069530524
299.9904425077349
299.982811873296
299.9768789267791
299.9730060025622
299.9694529267218
299.966862587522
299.9653022379358
299.9633423169668
299.9589816554351
299.9556309398956
299.9537187991609
299.9549701496325
299.9585958803079
299.9636398631772
299.9654828787789
299.9687384919859
299.9714740419399
299.9742827237613
299.9781677446031
299.9833189995495
299.9888125533014
299.9919153184105
299.9984700254951
300.0094124320789
300.0191002266396
300.0246628743611
300.0287892446432
300.0310666243375
300.0304354052415
300.0304772515618
300.0339790027544
300.0414371489548
300.0455851882092
300.0485440198258
300.0471893226837
300.043137221654
300.0381748501895
300.0337179812333
300.0308994687161
300.0294947980016
300.0281371784258
300.0259344371138
300.0224862069094
300.0165897169364
300.007238603711
299.9965633956459
299.9887655430499
299.9845025481951
299.9813535280629
299.9772094188112
299.9715928828273
299.9652768401392
299.9598519447281
299.9571373114783
299.9568543180582
299.9566659970276
299.955574716107
299.9539643178612
299.9542553299692
299.957127063971
299.9622203377314
299.967291518508
299.9705821955802
299.9719408058307
299.972739420645
299.9751980660291
299.9809630801339
299.9901432852674
300.0018108714078
300.0118706738837
300.016661122904
300.0187465472683
300.0222567001782
300.0294715334213
300.0382412020009
300.0432326125534
300.0442135119267
300.0427966271542
300.0409398276816
300.0409408064131
300.0419111312201
300.0443211946558
300.0451622159303
300.0436657194864
300.0400969548965
300.0347422331921
300.0282170505876
300.0225428057466
300.0196650218973
300.0178382079656
300.0144469136008
300.0082130720635
299.999395459115
299.9884749186436
299.9766212989437
299.9664310274846
299.9607976441623
299.9590056123704
299.9578438606281
299.9583482317939
299.9595378840014
299.9601172633826
299.9589307094399
299.9568456098562
299.9553490951222
299.9561139294717
299.9583996200251
299.9612687325189
299.9624881833095
299.9659607912327
299.9733333302872
299.9816611773081
299.9878057641985
299.9929230825522
299.9979003182345
300.0059110787651
300.0171518330137
300.0235790367155
300.0260213084519
300.0277601740618
300.029637481063
300.0320278170955
300.0378022443709
300.043077374903
300.0444672648629
300.0456061930179
300.0449780986894
300.0427676642597
300.0397810309768
300.0376919998006
300.0372401295343
300.0378403196478
300.0378217664714
300.036222420032
300.0323636092664
300.0256236978294
300.013736815149
299.9998722739562
299.9918988536041
299.9881576238749
299.9837742086776
299.9759882482487
299.9642481545818
299.9554129442462
299.9544912130386
299.955151137634
299.9562043201299
299.9563078450612
299.9564140881128
299.9567053436529
299.9575651905569
299.9587797748974
299.9600551916828
299.961156987134
299.9616035716962
299.9623567847372
299.9658701421616
299.9765373455737
299.9934591373341
300.0033911046352
300.0051681607698
300.0054641950806
300.0050324010596
300.0066871170852
300.0133000211836
300.0271924291788
300.037982655705
300.0400998179845
300.0398571189939
300.0392389568308
300.039304081783
300.0400115755291
300.0412765663363
300.0428145303186
300.0438674451715
300.0440600446589
300.0438460527636
300.0440271225269
300.0439467870598
300.0426572051448
300.0393275818663
300.0332084592212
300.0240352804651
300.0120630730654
299.9964880108299
299.9770552330257
299.9616217806354
299.9575861411832
299.9571555875717
299.9574691407819
299.9580311357248
299.9583379246002
299.9584344705425
299.9585020447441
299.9586971328204
299.9590423009866
299.9591392591526
299.9590333632505
299.9585691169636
299.9585778869018
299.9591948747445
299.9606890633937
299.9632722388449
299.9696648669668
299.9823735457118
299.9955488428998
300.0013915142274
300.0035966966292
300.005774498379
300.0100747748391
300.0203623201969
300.0330675020397
300.0376736814737
300.0381294599773
300.0383501524379
300.0384689101439
300.0385428985874
300.0396742305179
300.0424551539226
300.0449899794667
300.0456222485496
300.0455047039238
300.0452040181743
300.0450208417066
300.0447005558969
300.0436238526196
300.0411261388505
300.0365879391238
300.0294005579241
300.017897470984
299.9984088149591
299.9731491290354
299.9601072489075
299.9586379925689
299.9585946733758
299.9585442820085
299.9586721069161
299.9589311465364
299.95912666795
299.9590497098419
299.9587628739794
299.9584223434942
299.9579118838582
299.9572427990935
299.9568986288331
299.956846239163
299.9566828212483
299.9566514181629
299.9568149077391
299.9573349564316
299.9585973565317
299.9615985330714
299.9705491166742
299.9938937701204
300.0271039782879
300.0415741456881
300.0426797770583
300.0427644970522
300.0426028115605
300.042371822699
300.0422570783803
300.042212733489
300.0421354816436
300.0420900735392
300.04201809784
300.0421187548056
300.0422704074217
300.042359194309
300.0422849520162
300.0421676169283
300.0421061670905
300.0421111564555
300.0420761997867
300.0416481208561
300.0400367909463
300.0356918846557
300.0214771189941
299.9898219910804
299.9604990319439
299.9542401751411
299.95400390203
299.9540728923539
299.9542140440725
299.9542984157689
299.9543816785953
299.9544937487312
299.9546047934975
299.954676397827
299.9546645255925
299.9546644199916
299.9547533713298
299.9549137335356
299.9550576662407
299.9552617955125
299.9557650890694
299.9567621812611
299.9586669256632
299.963080197805
299.9745666188467
300.0001773905639
300.0297134495405
300.0390754521456
300.039559031012
300.0395718255144
300.0395142640539
300.0394733853145
300.0395555533157
300.0396692922843
300.039856536941
300.0408101912978
300.042546876396
300.0445037624218
300.0451943597513
300.0453946033813
300.04527393009
300.0449814338203
300.0449408191357
300.0452290146159
300.0446099192717
300.0435611095293
300.0430879033005
300.0376512657482
300.0212860979806
299.9870183780349
299.9596422362354
299.9550308828026
299.9549269901027
299.9549333822831
299.9549139437236
299.9549061654427
299.9549429795649
299.9550272560642
299.9550973448225
299.9551671667534
299.9551849094097
299.9551712233753
299.9551353902025
299.9551162102291
299.9551542046591
299.9552578182793
299.9554291734908
299.9556790203419
299.9561912970104
299.9577168858301
299.9625972997509
299.9772943462376
300.0091064311576
300.0382490576189
300.0444115157143
300.0445892331335
300.0445859447601
300.044553313934
300.0445137805222
300.044490746408
300.0444558021418
300.0443958194984
300.0443439267243
300.0443246351582
300.0443234860558
300.0443082422235
300.0442755501713
300.044241475504
300.0441902256475
300.0440666223346
300.0438226331884
300.0433372890437
300.0421528243552
300.0387494013793
300.0283772465634
300.0021217524475
299.9678503257608
299.9552894769433
299.9545788371725
299.9545729030294
299.954564965227
299.9545761722853
299.9546104315732
299.9546506618511
299.9546662795046
299.9547659027114
299.9549140185537
299.9549776183789
299.9549706862587
299.9549619965195
299.95502226794
299.955083827865
299.9550196617957
299.9551336515729
299.955650375599
299.9563086389639
299.9597549459726
299.9703506926087
299.9974792337673
300.0323404098809
300.044746103001
300.0454114383106
300.0454022889758
300.0453856305139
300.0453932510817
300.0453843964593
300.0453526336761
300.0453013479636
300.0452414978476
300.0450193241895
300.0445693079707
300.043967412252
300.0434891646512
300.0432631215875
300.043142049172
300.0430352081912
300.042911150533
300.0425794367654
300.0417231380863
300.0394019134311
300.0319527007234
300.0114862572837
299.9767891050666
299.9569334015965
299.9547967979221
299.9547591589101
299.954796160277
299.9548396036611
299.9548346133014
299.9548585076924
299.9549886586187
299.9552033942489
299.9556154882569
299.9564028035022
299.9572246179824
299.957618462442
299.9577255780211
299.9577780359322
299.9579301740488
299.9581774306377
299.9585089199339
299.9593478036275
299.9614326147154
299.9667409375995
299.9820315981144
300.0132767119685
300.0398396526112
300.0449419404401
300.0450785913969
300.0451130473398
300.045067867799
300.0449550889608
300.0448115207453
300.0446854835883
300.0441284769378
300.0431357477084
300.0423985419721
300.04224905579
300.0422420773361
300.0421569290355
300.0420480114062
300.0420938218104
300.0420704494399
300.041770068951
300.0411380111291
300.0401356198725
300.0353122563232
300.0220151944545
299.991879084947
299.9620653919923
299.9548877708482
299.9546468654704
299.9547452038999
299.9548111804767
299.9548693116379
299.9552371182979
299.9559739009733
299.9569829061517
299.9580401825075
299.958539379396
299.9587455450745
299.9586566320729
299.9583937783862
299.9586464702624
299.9591454159223
299.9593507015645
299.959081047798
299.9597649932164
299.9615824469378
299.9634517028363
299.9728040833736
299.9966220140033
300.0303484896257
300.0444389614592
300.0454931698641
300.0456008218081
300.0454363477432
300.0451722648437
300.0450212498388
300.0445737435084
300.0432913847769
300.0419202368882
300.0414721638097
300.0415185748019
300.0415453783004
300.0414489305529
300.0414439984874
300.0417538039035
300.0413779835528
300.0406732986301
300.0403683465082
300.0400053747779
300.0365462319125
300.0287652739441
300.0058627193881
299.9714974876238
299.9558703376192
299.9546781236805
299.9547221958139
299.9547549742953
299.9548285590511
299.9552034221629
299.9558892557616
299.956904293455
299.9579593160263
299.9584064047325
299.9585860710142
299.9583579905531
299.9580802845055
299.9582261568394
299.9586124117297
299.9586734142605
299.9584346734047
299.9591542334117
299.9607654632467
299.9621053425094
299.9700212406291
299.9908786861004
300.0250255025264
300.04310051139
300.0449200497451
300.0450239863094
300.0448675110002
300.0446370050407
300.0445429109545
300.0441135032646
300.0430133704432
300.0419086772251
300.0415586117686
300.0415684501525
300.0415276687232
300.0415125112677
300.0415987676503
300.0418287455449
300.0414138652506
300.0407926218143
300.040735705172
300.0403381524072
300.0374268618115
300.0316127287978
300.0125664279784
299.978682693992
299.9579093001098
299.9554843318551
299.9554577418201
299.9554341135726
299.9555465527795
299.9559544193576
299.9565328234978
299.9573928891348
299.9581620993737
299.9584822681124
299.9586178153264
299.9583996440197
299.9581599253654
299.9584050258413
299.9587636185717
299.9586722180122
299.9585955267307
299.9592958354105
299.9605484631083
299.961364028041
299.9673310087862
299.9835405626716
300.0159758353262
300.0403712999989
300.0442912944424
300.0444135148733
300.0442969040994
300.0440904512988
300.0438878410384
300.0430938615729
300.0420752049765
300.0417005024905
300.041751194238
300.0418237884494
300.0416415817074
300.0414730213612
300.0416393724948
300.04161712401
300.0411243624771
300.040606634903
300.040785969114
300.0403052644772
300.0379723411937
300.034157518522
300.0198300022178
299.9889803425431
299.9615649136832
299.9560695540355
299.955916409008
299.9558772727193
299.9559914388463
299.9564303669014
299.9570469445723
299.9578719551787
299.9582829757487
299.9584084452117
299.9584120831335
299.9582603397433
299.9582623526101
299.9585670128269
299.9588247733885
299.9586076233053
299.9587495314458
299.9594384702099
299.9602745816305
299.9607307031317
299.965141102131
299.9767896561597
300.0050663578859
300.0356080939381
300.0438984537014
300.0442310208273
300.0441422000997
300.0440211686196
300.0438654688428
300.0431490942389
300.0421196483802
300.0416082208018
300.0415944725945
300.0416080629941
300.0414496831653
300.0413911828339
300.0416102609274
300.0414499244164
300.0409835795938
300.0406634128015
300.0409691110454
300.0403480424266
300.0384340813452
300.0361713945512
300.0258272951201
300.0000991721282
299.967642236089
299.9565022870784
299.9558799279816
299.9558125480127
299.95593366482
299.956308079303
299.9567976308637
299.9577555110998
299.9584598200414
299.9586250062345
299.9585616124784
299.9583977824652
299.9584794941792
299.9587510790168
299.9588470505587
299.9586215865477
299.9589485521304
299.9596135884718
299.9599989201302
299.9603359656344
299.9636764210873
299.9715387068103
299.9941693932979
300.0278656789779
300.0430583694291
300.0442069240923
300.0441666335664
300.0441143436819
300.0439879445031
300.0433530743588
300.0423728868135
300.0416368111046
300.04148493228
300.0414412952348
300.041345012001
300.041386736428
300.0415652267034
300.0412907906904
300.0408448842265
300.0407956059129
300.0410091720532
300.0402939952476
300.0387621573904
300.0375627405527
300.0302046541051
300.0103830313265
299.9766644074307
299.9577629578622
299.9557512146586
299.9556612956757
299.9557845935794
299.9560769997698
299.9564192263873
299.9574176540365
299.9584455484258
299.958724509356
299.9586455295462
299.9585216591266
299.9586660038686
299.9588769727897
299.9587886394729
299.9587102559604
299.9591581877631
299.9597482837244
299.9597456882004
299.9601400922645
299.962737551719
299.9677152898159
299.9845977268058
300.0173076545453
300.0409073365869
300.0443935686863
300.044446782185
300.0444579705177
300.0443296427809
300.043760632831
300.0428855394201
300.0418353680327
300.0413825022484
300.0412433795302
300.0411605165753
300.0413006404274
300.0413914243873
300.0410672112201
300.0407280678662
300.0409021567948
300.0408739183656
300.0401388576383
300.0390418736044
300.0384554990374
300.0332207810033
300.018950341297
299.9879040125832
299.9609340832984
299.9556484647841
299.9554795879502
299.9555903827518
299.9557837411843
299.9560390710867
299.9570184734943
299.9582830750921
299.9587681305165
299.9587354472796
299.9586746574338
299.9588378990865
299.958913295572
299.9587040129165
299.958813576054
299.9592947960783
299.9597083204829
299.9594166171074
299.9600032556269
299.9621547152503
299.9650863765897
299.9772803058796
300.0056280640705
300.0361678912262
300.0444354753238
300.0448009246633
300.0448821527189
300.0447264064371
300.0442637746144
300.0436908835253
300.0424682941318
300.0413010648622
300.0409221489875
300.0408640570635
300.0410564682828
300.0411601144688
300.0409206413948
300.0407602756343
300.0410407166354
300.0407373570052
300.0399873605966
300.0394021443822
300.039058483659
300.0352047224709
300.0255975439975
299.9999801438746
299.9671940191499
299.955695129377
299.9550650875997
299.9551627457152
299.9552920828434
299.9553557446411
299.9558720360649
299.9570295296061
299.9585018208519
299.9592260605654
299.9593719791223
299.9594879847443
299.9593665741998
299.9591548024591
299.9591136140012
299.9594473672797
299.959721212817
299.9594885610231
299.9599413562876
299.9614355078184
299.9633302863132
299.97177030628
299.9943133000464
300.0280928826205
300.0433139467333
300.0444468930692
300.0444536395013
300.0444537751572
300.0444526319956
300.0444513148666
300.0444446395437
300.044426770211
300.0443808322721
300.044271875731
300.044037786345
300.0436048257701
300.0429345177461
300.041994667478
300.0405212833036
300.037484898339
300.0300514927654
300.0153536764903
300.0026241841524
300.0000622763786
300.0000000775379
300.0000000000007
299.9999999999989
299.9999999999989
299.9999999999989
299.9999999999992
300.0000000000001
300.0000000000009
300.0000000000011
300.000000000001
300.000000000001
300.000000000001
300.0000000000011
300.0000000000009
300.0000000000009
300.0000000000008
300.0000000000008
300.000000000001
300.0000000000011
300.0000000000011
300.000000000001
300.000000000001
300.0000000000007
300.0000000000009
300.0000000000009
300.0000000000009
300.0000000000009
300.0000000000009
300.0000000000009
300.0000000000009
300.0000000000009
300.0000000000009
300.0000000000011
300.0000000000011
300.000000000001
300.0000000000009
300.0000000000009
300.0000000000009
300.0000000000009
300.0000000000009
300.000000000001
300.0000000000012
300.0000000000013
300.0000000000015
300.0000000000015
300.0000000000016
300.0000000000015
300.0000000000013
300.0000000000012
300.0000000000012
300.0000000000013
300.0000000000013
300.0000000000015
300.0000000000015
300.0000000000015
300.0000000000016
300.0000000000016
300.0000000000016
300.0000000000016
300.0000000000016
300.0000000000015
300.0000000000016
300.0000000000017
300.0000000000017
300.0000000000016
300.0000000000016
300.0000000000015
300.0000000000016
300.0000000000017
300.0000000000016
300.0000000000018
300.0000000000018
300.0000000000017
300.0000000000017
300.0000000000017
300.0000000000016
300.0000000000016
300.0000000000016
300.0000000000018
300.0000000000019
300.000000000002
300.000000000002
300.000000000002
300.0000000000021
300.0000000000021
300.000000000002
300.0000000000022
300.0000000000021
300.0000000000019
300.0000000000018
300.0000000000018
300.0000000000016
300.0000000000015
300.0000000000014
300.0000000000013
300.0000000000014
300.0000000000014
300.0000000000013
300.0000000000013
300.0000000000013
300.0000000000014
300.0000000000013
300.0000000000013
300.0000000000014
300.0000000000013
300.0000000000013
300.0000000000013
300.0000000000014
300.0000000000013
300.0000000000013
300.0000000000014
300.0000000000014
300.0000000000013
300.0000000000013
300.0000000000014
300.0000000000013
300.0000000000011
300.0000000000011
300.0000000000012
300.0000000000013
300.0000000000014
300.0000000000015
300.0000000000016
300.0000000000017
300.0000000000016
300.0000000000014
300.0000000000014
300.0000000000013
300.0000000000013
300.0000000000013
300.0000000000012
300.0000000000013
300.0000000000013
300.0000000000012
300.0000000000012
300.0000000000014
300.0000000000015
300.0000000000017
300.0000000000018
300.0000000000018
300.0000000000018
300.0000000000019
300.0000000000019
300.0000000000019
300.0000000000019
300.0000000000019
300.0000000000019
300.0000000000019
300.0000000000019
300.0000000000019
300.0000000000017
300.0000000000018
300.0000000000017
300.0000000000014
300.0000000000013
300.0000000000014
300.0000000000014
300.0000000000014
300.0000000000014
300.0000000000014
300.0000000000013
300.0000000000014
300.0000000000015
300.0000000000016
300.0000000000018
300.0000000000018
300.0000000000015
300.0000000000009
)
;

boundaryField
{
    inlet
    {
        type            fixedValue;
        value           uniform 300;
    }
    outlet
    {
        type            inletOutlet;
        inletValue      uniform 300;
        value           uniform 300;
    }
    frontAndBack
    {
        type            empty;
    }
}


// ************************************************************************* //
