/*--------------------------------*- C++ -*----------------------------------*\
| =========                 |                                                 |
| \\      /  F ield         | OpenFOAM: The Open Source CFD Toolbox           |
|  \\    /   O peration     | Version:  v2012                                 |
|   \\  /    A nd           | Website:  www.openfoam.com                      |
|    \\/     M anipulation  |                                                 |
\*---------------------------------------------------------------------------*/
FoamFile
{
    version     2.0;
    format      ascii;
    class       volVectorField;
    location    "0.006";
    object      U;
}
// * * * * * * * * * * * * * * * * * * * * * * * * * * * * * * * * * * * * * //

dimensions      [0 1 -1 0 0 0 0];


internalField   nonuniform List<vector> 
1000
(
(-0.01916303968046566 0 0)
(-0.03566106223662069 0 0)
(-0.02785135753762291 0 0)
(-0.03553275015158613 0 0)
(-0.05854098288654154 0 0)
(-0.09297319871780599 0 0)
(-0.1168693669902548 0 0)
(-0.1249844534009398 0 0)
(-0.119584796371342 0 0)
(-0.1044229205529703 0 0)
(-0.0986566586753603 0 0)
(-0.1084740097748057 0 0)
(-0.1210270799032201 0 0)
(-0.1371732069227951 0 0)
(-0.1386378578498012 0 0)
(-0.1214427363222955 0 0)
(-0.08989272144951521 0 0)
(-0.06313928553932426 0 0)
(-0.04999879208607722 0 0)
(-0.05081701206256442 0 0)
(-0.055012817860015 0 0)
(-0.05400000873102177 0 0)
(-0.03653020698767125 0 0)
(-0.0004233525519700714 0 0)
(0.04254475414017483 0 0)
(0.0683706886874829 0 0)
(0.07331661283105304 0 0)
(0.07045829527059767 0 0)
(0.07214849827832549 0 0)
(0.08098976076150048 0 0)
(0.09778053702416668 0 0)
(0.1135031382595117 0 0)
(0.1291755729907 0 0)
(0.132147754093236 0 0)
(0.129493896606851 0 0)
(0.1256152278568954 0 0)
(0.1240920924998315 0 0)
(0.1165973368446582 0 0)
(0.1037115273441985 0 0)
(0.09107749264190471 0 0)
(0.08254728178744811 0 0)
(0.07718811405402867 0 0)
(0.07345218593590191 0 0)
(0.06613006893947779 0 0)
(0.0505947579293518 0 0)
(0.02440090064351539 0 0)
(-0.007200295547153364 0 0)
(-0.03273744934212022 0 0)
(-0.04918484572490613 0 0)
(-0.06070013073892471 0 0)
(-0.06953166616313813 0 0)
(-0.07821170946839912 0 0)
(-0.09108741883206205 0 0)
(-0.1087008512606211 0 0)
(-0.1251141445296992 0 0)
(-0.1341737330437636 0 0)
(-0.1369247411743965 0 0)
(-0.1323350594127427 0 0)
(-0.1240716393923291 0 0)
(-0.1170724176083693 0 0)
(-0.1168096328545589 0 0)
(-0.1158309473321456 0 0)
(-0.109385050117589 0 0)
(-0.09578158858592929 0 0)
(-0.07985964749045374 0 0)
(-0.0661745084160742 0 0)
(-0.05760201850334537 0 0)
(-0.05170237095592292 0 0)
(-0.03730967844089884 0 0)
(-0.007976968828075299 0 0)
(0.02623838255627203 0 0)
(0.05038776316772754 0 0)
(0.06581599006509689 0 0)
(0.076937101208351 0 0)
(0.08898797514792071 0 0)
(0.1039304055662959 0 0)
(0.1135907563861872 0 0)
(0.1171250909278081 0 0)
(0.1224484456426697 0 0)
(0.1283394043959966 0 0)
(0.1312138535260236 0 0)
(0.1300356085700726 0 0)
(0.1248993899006769 0 0)
(0.1188332938986989 0 0)
(0.1147663486334828 0 0)
(0.1140679256208599 0 0)
(0.1085783050366811 0 0)
(0.09252419171181302 0 0)
(0.07077619652548632 0 0)
(0.05363852158687937 0 0)
(0.04189286052338704 0 0)
(0.0345804527369396 0 0)
(0.02518418311467441 0 0)
(0.005365880366753384 0 0)
(-0.0277543144111225 0 0)
(-0.06792490663159524 0 0)
(-0.1014421241068914 0 0)
(-0.1169703789037436 0 0)
(-0.1187594726106809 0 0)
(-0.1179220807517168 0 0)
(-0.1170287281144421 0 0)
(-0.1193388646659764 0 0)
(-0.1218566787663278 0 0)
(-0.1220235106949994 0 0)
(-0.1198008673805536 0 0)
(-0.1200952255305084 0 0)
(-0.1210982195850563 0 0)
(-0.1250128483397328 0 0)
(-0.1249915749006037 0 0)
(-0.1151796394044909 0 0)
(-0.09447950328387687 0 0)
(-0.06676418412523012 0 0)
(-0.04431229612586041 0 0)
(-0.03433280075383248 0 0)
(-0.02907425157145472 0 0)
(-0.01565120685870662 0 0)
(0.01451493409374336 0 0)
(0.0547441511462001 0 0)
(0.07563771165196473 0 0)
(0.07958788410007336 0 0)
(0.07809902726024197 0 0)
(0.07955274058326141 0 0)
(0.09062879864304872 0 0)
(0.1118138490903611 0 0)
(0.12833586752663 0 0)
(0.1303972262746402 0 0)
(0.1278015020059925 0 0)
(0.1244544206923236 0 0)
(0.1235659516117167 0 0)
(0.1208166594930622 0 0)
(0.115799790119704 0 0)
(0.1102894304711548 0 0)
(0.1046136686698477 0 0)
(0.1007083839188764 0 0)
(0.1002648817563836 0 0)
(0.09744384564799491 0 0)
(0.08203320588949191 0 0)
(0.04549356330024937 0 0)
(-0.0003434150724843506 0 0)
(-0.02875080634091154 0 0)
(-0.04140320729714123 0 0)
(-0.04958450327320713 0 0)
(-0.06615378586771109 0 0)
(-0.09779663841061204 0 0)
(-0.124614754475818 0 0)
(-0.1303041661304577 0 0)
(-0.1340044449917776 0 0)
(-0.1331448083313877 0 0)
(-0.1293436793254747 0 0)
(-0.1242462864497268 0 0)
(-0.1198092736510286 0 0)
(-0.1176990295634347 0 0)
(-0.1174091783766883 0 0)
(-0.1178289561672123 0 0)
(-0.11760368739892 0 0)
(-0.1151513813506263 0 0)
(-0.1084477533504971 0 0)
(-0.09434504950071933 0 0)
(-0.06361089397981839 0 0)
(-0.01760182723836245 0 0)
(0.007648907308249018 0 0)
(0.01098652694463747 0 0)
(0.01264885907081873 0 0)
(0.01674050554344946 0 0)
(0.02294253180060424 0 0)
(0.04066537977463536 0 0)
(0.0778953184098851 0 0)
(0.1073087953021525 0 0)
(0.1136400473748743 0 0)
(0.1149617789825693 0 0)
(0.1159401370887497 0 0)
(0.1166710188306525 0 0)
(0.1158608724950834 0 0)
(0.1168751366210006 0 0)
(0.1214230895615248 0 0)
(0.1269422740332546 0 0)
(0.1295172495449781 0 0)
(0.1297786549705713 0 0)
(0.1279103148871331 0 0)
(0.1244629201639516 0 0)
(0.12086958500585 0 0)
(0.1137571629632115 0 0)
(0.0982404654114539 0 0)
(0.07155252765086667 0 0)
(0.03488817195022515 0 0)
(-0.01187289360134785 0 0)
(-0.06797820065375962 0 0)
(-0.1110793996148969 0 0)
(-0.1212862505725286 0 0)
(-0.1222213220752719 0 0)
(-0.1228002393520223 0 0)
(-0.1229373154266425 0 0)
(-0.1219393939510498 0 0)
(-0.1201125418273358 0 0)
(-0.1185832093423733 0 0)
(-0.1180083812183642 0 0)
(-0.1188972264361932 0 0)
(-0.1200296588437779 0 0)
(-0.1200268351156958 0 0)
(-0.1185377633699044 0 0)
(-0.1169903054058419 0 0)
(-0.1168768589022003 0 0)
(-0.1160086510533338 0 0)
(-0.1089908931096659 0 0)
(-0.08847259272317426 0 0)
(-0.04921081588913561 0 0)
(-0.01036249131839686 0 0)
(0.005333701780980445 0 0)
(0.009742696558030495 0 0)
(0.01436636194146911 0 0)
(0.02772543205384652 0 0)
(0.05939677342629043 0 0)
(0.09696225969613367 0 0)
(0.109877247648968 0 0)
(0.1104636191724286 0 0)
(0.1100745992524329 0 0)
(0.1103280129819679 0 0)
(0.1120770493991727 0 0)
(0.1155128031907449 0 0)
(0.1227818332239884 0 0)
(0.1294233019587208 0 0)
(0.1312367316242798 0 0)
(0.1316454247207172 0 0)
(0.1318740504355139 0 0)
(0.131085941668978 0 0)
(0.1290083426373045 0 0)
(0.1253173334489937 0 0)
(0.1183638286247305 0 0)
(0.10584633507867 0 0)
(0.0854655695392447 0 0)
(0.05222339430099272 0 0)
(-0.004376472481394711 0 0)
(-0.07776296532898594 0 0)
(-0.1156371287601743 0 0)
(-0.1198831033046497 0 0)
(-0.1198397015290013 0 0)
(-0.1194900388970263 0 0)
(-0.1191826039082484 0 0)
(-0.1190676659931291 0 0)
(-0.1189887566408023 0 0)
(-0.1189830819248754 0 0)
(-0.11852083245255 0 0)
(-0.1190475752522276 0 0)
(-0.1213268349789628 0 0)
(-0.1242929734874708 0 0)
(-0.1257325380596438 0 0)
(-0.1258243402136195 0 0)
(-0.1252088049453936 0 0)
(-0.1243771986499713 0 0)
(-0.1237731841136338 0 0)
(-0.1230678247987788 0 0)
(-0.1208042831851269 0 0)
(-0.1120794593026688 0 0)
(-0.08527701994360018 0 0)
(-0.01703038747386405 0 0)
(0.07904266155792705 0 0)
(0.1204106897353635 0 0)
(0.1231413897955191 0 0)
(0.1230533952730201 0 0)
(0.1231168098370743 0 0)
(0.1230368855038882 0 0)
(0.1225639489209657 0 0)
(0.1219413909029861 0 0)
(0.1215431847841405 0 0)
(0.1216378170778081 0 0)
(0.1219383420142923 0 0)
(0.1220095645750973 0 0)
(0.1218770966918296 0 0)
(0.1220576489292866 0 0)
(0.1223580513591633 0 0)
(0.1225867263209606 0 0)
(0.1223267564652667 0 0)
(0.1217295440661163 0 0)
(0.1208038162737466 0 0)
(0.1197646431624778 0 0)
(0.1169451990031002 0 0)
(0.1034638835221135 0 0)
(0.06190554037591463 0 0)
(-0.02986870118175687 0 0)
(-0.1143742749295816 0 0)
(-0.1321272296942673 0 0)
(-0.132715168992932 0 0)
(-0.1327818755960682 0 0)
(-0.1327320080501623 0 0)
(-0.1323442308584252 0 0)
(-0.1318088068935135 0 0)
(-0.1314802774895234 0 0)
(-0.131407921107302 0 0)
(-0.1313231659343779 0 0)
(-0.1310890940256456 0 0)
(-0.130787630171719 0 0)
(-0.1307032571437872 0 0)
(-0.1306904958671833 0 0)
(-0.1303137377164658 0 0)
(-0.1293569671562523 0 0)
(-0.1278277286198398 0 0)
(-0.1250857382566354 0 0)
(-0.1194436981836698 0 0)
(-0.1065925798896861 0 0)
(-0.07376654408801907 0 0)
(0.0003642381909191133 0 0)
(0.08597841272256104 0 0)
(0.1130843664049522 0 0)
(0.1144085263627211 0 0)
(0.1143806482371843 0 0)
(0.1144219035015118 0 0)
(0.114383942775409 0 0)
(0.114263580697055 0 0)
(0.1145369212735396 0 0)
(0.1155911715656784 0 0)
(0.1174238055937173 0 0)
(0.1232803733394673 0 0)
(0.1292683407745728 0 0)
(0.130799979996079 0 0)
(0.1306586576470113 0 0)
(0.1305965845860755 0 0)
(0.1312009577269143 0 0)
(0.1304776169965802 0 0)
(0.1289412759524703 0 0)
(0.1286223015308516 0 0)
(0.1286052014899395 0 0)
(0.1227499563170513 0 0)
(0.109432707720542 0 0)
(0.06168433694677698 0 0)
(-0.03739588897642533 0 0)
(-0.1167314736853293 0 0)
(-0.1302161384016423 0 0)
(-0.1305730093644397 0 0)
(-0.1305491068430006 0 0)
(-0.1304258660170355 0 0)
(-0.1302282008570145 0 0)
(-0.1300443527696176 0 0)
(-0.1299108909779231 0 0)
(-0.1299043717886945 0 0)
(-0.1299610143416873 0 0)
(-0.1299750779268225 0 0)
(-0.1298830709927282 0 0)
(-0.1296752858244021 0 0)
(-0.1294927519874521 0 0)
(-0.1293612852472109 0 0)
(-0.1292966924610551 0 0)
(-0.1291352084175387 0 0)
(-0.1285521307514417 0 0)
(-0.1268776578266813 0 0)
(-0.1222555681750003 0 0)
(-0.1080676526681099 0 0)
(-0.06554036153375443 0 0)
(0.02645375249668944 0 0)
(0.1106552183835764 0 0)
(0.1283936411063852 0 0)
(0.1288713325405464 0 0)
(0.1288478222263291 0 0)
(0.1288852160942028 0 0)
(0.1288542404957362 0 0)
(0.1287344606043089 0 0)
(0.1285569351140969 0 0)
(0.1283952025767648 0 0)
(0.1282808841643895 0 0)
(0.1282107308921309 0 0)
(0.1281588527832139 0 0)
(0.1281278939586618 0 0)
(0.1281217999301164 0 0)
(0.1280300876452414 0 0)
(0.1277873826068468 0 0)
(0.1274008475159591 0 0)
(0.126739321953224 0 0)
(0.1253717660739645 0 0)
(0.121994566183549 0 0)
(0.1120989984510966 0 0)
(0.08196801030804367 0 0)
(0.006129809735708108 0 0)
(-0.09292929198847351 0 0)
(-0.1292909197348245 0 0)
(-0.1314145418605963 0 0)
(-0.1314613681640948 0 0)
(-0.1313883781344015 0 0)
(-0.1313161124420484 0 0)
(-0.1313365969715956 0 0)
(-0.1312724073746443 0 0)
(-0.1310453634766556 0 0)
(-0.1307733780973857 0 0)
(-0.1304937443503414 0 0)
(-0.1303230569280119 0 0)
(-0.1301994418587824 0 0)
(-0.1300989117566534 0 0)
(-0.1302117048434423 0 0)
(-0.1302462510033067 0 0)
(-0.1298361937032957 0 0)
(-0.1293065046862481 0 0)
(-0.1291509950318237 0 0)
(-0.1257345935217015 0 0)
(-0.1167249295362515 0 0)
(-0.0856922161145755 0 0)
(-0.007239876631156924 0 0)
(0.09351635134235371 0 0)
(0.1293658770930562 0 0)
(0.1313301006458372 0 0)
(0.1313898878216641 0 0)
(0.1313530294032131 0 0)
(0.1312685933702397 0 0)
(0.1311893867435457 0 0)
(0.1311921068581028 0 0)
(0.1311143603597156 0 0)
(0.1307635980659227 0 0)
(0.1301632278840006 0 0)
(0.1289928002144302 0 0)
(0.1272383740475101 0 0)
(0.1257617604597108 0 0)
(0.1250831997385272 0 0)
(0.1248042168860607 0 0)
(0.1245472156347997 0 0)
(0.1240327249067738 0 0)
(0.1231236597434423 0 0)
(0.1208408856496669 0 0)
(0.1137408317789107 0 0)
(0.09258671160202442 0 0)
(0.03325362066244627 0 0)
(-0.06722211480243448 0 0)
(-0.1246222409606629 0 0)
(-0.1306992033252032 0 0)
(-0.1307697201348944 0 0)
(-0.1308028141542374 0 0)
(-0.1307716000553323 0 0)
(-0.1306236891573822 0 0)
(-0.1303948047189192 0 0)
(-0.1302780074018319 0 0)
(-0.1296967336177844 0 0)
(-0.1282457054787872 0 0)
(-0.1260190817583213 0 0)
(-0.1238612837799243 0 0)
(-0.1227504852353606 0 0)
(-0.1222333879247352 0 0)
(-0.1218939178823478 0 0)
(-0.121747874360522 0 0)
(-0.1212292340015523 0 0)
(-0.1198193588305111 0 0)
(-0.1174037645511414 0 0)
(-0.112003382202399 0 0)
(-0.09588799363169705 0 0)
(-0.0519540326762039 0 0)
(0.03820343023116269 0 0)
(0.1151701819355529 0 0)
(0.1301496324209474 0 0)
(0.130575878250984 0 0)
(0.1303600096389478 0 0)
(0.1301223158069389 0 0)
(0.1301458572574281 0 0)
(0.1298969533086826 0 0)
(0.1289394012784525 0 0)
(0.1275068828432787 0 0)
(0.1250279597248275 0 0)
(0.1228217613811719 0 0)
(0.1220573455556264 0 0)
(0.1218287337425976 0 0)
(0.1220269350921761 0 0)
(0.1222005707901881 0 0)
(0.1216604357212783 0 0)
(0.1209578561391947 0 0)
(0.1209480639274627 0 0)
(0.1199939526338333 0 0)
(0.1147896916309777 0 0)
(0.103017671592683 0 0)
(0.06343238263854867 0 0)
(-0.02380796138645615 0 0)
(-0.10964265294861 0 0)
(-0.1301859379223063 0 0)
(-0.1310504055133395 0 0)
(-0.1313224733076133 0 0)
(-0.130855972120797 0 0)
(-0.1300332255703468 0 0)
(-0.1294845089158902 0 0)
(-0.1279591240671951 0 0)
(-0.1242894218409095 0 0)
(-0.1208162496419356 0 0)
(-0.1198158548886329 0 0)
(-0.1199808289940747 0 0)
(-0.1200515988965895 0 0)
(-0.1193094077219893 0 0)
(-0.1189761596262874 0 0)
(-0.119603844324387 0 0)
(-0.1185367644073278 0 0)
(-0.1164873558876364 0 0)
(-0.1152850905937643 0 0)
(-0.1141786364670944 0 0)
(-0.1037060820321028 0 0)
(-0.07916603318999731 0 0)
(-0.01011933767145941 0 0)
(0.0879134923736541 0 0)
(0.1288711035106943 0 0)
(0.1316702094705993 0 0)
(0.13146268104321 0 0)
(0.131289669905889 0 0)
(0.1311663277981956 0 0)
(0.1302513708664251 0 0)
(0.1282873080523406 0 0)
(0.1254357746524144 0 0)
(0.1217871746526323 0 0)
(0.1199701534447405 0 0)
(0.1193713704189988 0 0)
(0.1199719771094615 0 0)
(0.1207996674259227 0 0)
(0.120453906798476 0 0)
(0.1192614745648184 0 0)
(0.1188872807477506 0 0)
(0.1197466215733243 0 0)
(0.1176067152119388 0 0)
(0.1124995630719855 0 0)
(0.1079493366112123 0 0)
(0.08257117870182176 0 0)
(0.01668183045011483 0 0)
(-0.08225665592456866 0 0)
(-0.1273458195483561 0 0)
(-0.1310867925100883 0 0)
(-0.1313888501937614 0 0)
(-0.1309233107843307 0 0)
(-0.1301498134190136 0 0)
(-0.1297147444312185 0 0)
(-0.1281184212064206 0 0)
(-0.1244072251421648 0 0)
(-0.1211280948984665 0 0)
(-0.1203302318945789 0 0)
(-0.1205151132736105 0 0)
(-0.1205284602673121 0 0)
(-0.1203670516474262 0 0)
(-0.1204327053286474 0 0)
(-0.1212177078966743 0 0)
(-0.1200769685675658 0 0)
(-0.1181731150584063 0 0)
(-0.1175967861759784 0 0)
(-0.1165189661886638 0 0)
(-0.1073023787447242 0 0)
(-0.08747112406911021 0 0)
(-0.02659729572358742 0 0)
(0.07262611524168028 0 0)
(0.1249347823281419 0 0)
(0.1298638877809577 0 0)
(0.1298267224853356 0 0)
(0.1298121586719503 0 0)
(0.1295895171150419 0 0)
(0.1286587976795013 0 0)
(0.1270973920974333 0 0)
(0.1247446770388321 0 0)
(0.1216602992120516 0 0)
(0.1200612189727207 0 0)
(0.1195496339977496 0 0)
(0.1202043994714541 0 0)
(0.12094484043639 0 0)
(0.1204883426336188 0 0)
(0.1194759458282311 0 0)
(0.1195734382208088 0 0)
(0.1200985463308454 0 0)
(0.1179619826243724 0 0)
(0.1137372842220398 0 0)
(0.1107659734962681 0 0)
(0.09053183752415792 0 0)
(0.03623699354154033 0 0)
(-0.06138773724161415 0 0)
(-0.1215422707322271 0 0)
(-0.1289056009726985 0 0)
(-0.1292021370755246 0 0)
(-0.1287803727124109 0 0)
(-0.1281468711182466 0 0)
(-0.1277615543706797 0 0)
(-0.1260491634026366 0 0)
(-0.1229004081394415 0 0)
(-0.1206684481904572 0 0)
(-0.1202751526886624 0 0)
(-0.1203536875500441 0 0)
(-0.1201426944176553 0 0)
(-0.1201100853379004 0 0)
(-0.1204245807304193 0 0)
(-0.1207054455725058 0 0)
(-0.1194623003003073 0 0)
(-0.1178240952062288 0 0)
(-0.1179297634229179 0 0)
(-0.1167224531524595 0 0)
(-0.1092918448536596 0 0)
(-0.09543033228386802 0 0)
(-0.04767544838656796 0 0)
(0.04646049160254922 0 0)
(0.116946469773679 0 0)
(0.1279586244514029 0 0)
(0.1281736127925003 0 0)
(0.1282525629177171 0 0)
(0.1279124206727587 0 0)
(0.1265096407619014 0 0)
(0.1244953464022046 0 0)
(0.1220169045574501 0 0)
(0.1208886385843116 0 0)
(0.1205267033031003 0 0)
(0.1203797576029284 0 0)
(0.1207938469296726 0 0)
(0.120922073652175 0 0)
(0.1199581113898807 0 0)
(0.1189774123641632 0 0)
(0.1194986084127087 0 0)
(0.1193473849634598 0 0)
(0.1172428942171814 0 0)
(0.1141779916394446 0 0)
(0.1125235625194493 0 0)
(0.097691556280391 0 0)
(0.05738296845684995 0 0)
(-0.03162554960359204 0 0)
(-0.1110641504822817 0 0)
(-0.1272442062242955 0 0)
(-0.1277555259048921 0 0)
(-0.1274644618057518 0 0)
(-0.1269992957206778 0 0)
(-0.1264618031604045 0 0)
(-0.1243094855361219 0 0)
(-0.1215384861180884 0 0)
(-0.12047781157507 0 0)
(-0.1206037636554891 0 0)
(-0.1207730045600587 0 0)
(-0.1202844924520459 0 0)
(-0.1199493271941922 0 0)
(-0.1204904798878507 0 0)
(-0.1202557388149265 0 0)
(-0.1189503683486142 0 0)
(-0.117686775371019 0 0)
(-0.1184385687548776 0 0)
(-0.1168829771112741 0 0)
(-0.1108268140998621 0 0)
(-0.1021574013623618 0 0)
(-0.06699663181299034 0 0)
(0.014930293073655 0 0)
(0.1030411685652504 0 0)
(0.1267556763274328 0 0)
(0.1277398208190655 0 0)
(0.1279093613408625 0 0)
(0.1275624751942593 0 0)
(0.1264052048573031 0 0)
(0.1248586651460488 0 0)
(0.122183658787798 0 0)
(0.1204143476750822 0 0)
(0.1199568990092534 0 0)
(0.1199865003991474 0 0)
(0.1204568399799173 0 0)
(0.1203447007814631 0 0)
(0.1194886217413783 0 0)
(0.1189613752735844 0 0)
(0.1196941450519174 0 0)
(0.1189617036632231 0 0)
(0.1169151898264106 0 0)
(0.1151449372086354 0 0)
(0.1141182140442702 0 0)
(0.1030232092514246 0 0)
(0.07497264480879744 0 0)
(0.0005558397052836002 0 0)
(-0.0936116127411773 0 0)
(-0.126053126857001 0 0)
(-0.1277617853977953 0 0)
(-0.1275613716121287 0 0)
(-0.127292701203295 0 0)
(-0.126862969659869 0 0)
(-0.1248262282815724 0 0)
(-0.1218448939608969 0 0)
(-0.1201997455765931 0 0)
(-0.1200599818868733 0 0)
(-0.1200752654055991 0 0)
(-0.1197327595792126 0 0)
(-0.1196885421612468 0 0)
(-0.120287721527592 0 0)
(-0.1196581916078628 0 0)
(-0.1183579979406736 0 0)
(-0.1178260414095129 0 0)
(-0.1186238900429849 0 0)
(-0.1167350438271544 0 0)
(-0.1118251844358816 0 0)
(-0.1069354689107592 0 0)
(-0.08187468700040068 0 0)
(-0.01661821348590273 0 0)
(0.08049555930988141 0 0)
(0.1242986012418844 0 0)
(0.1278101137370509 0 0)
(0.1280469390496394 0 0)
(0.1276834137479546 0 0)
(0.1267462305368867 0 0)
(0.1256586867356881 0 0)
(0.1228809446101256 0 0)
(0.1202725193396819 0 0)
(0.1196162923004367 0 0)
(0.1198053664902372 0 0)
(0.1202319218618106 0 0)
(0.1198881516333215 0 0)
(0.1191473273618396 0 0)
(0.1191560263856423 0 0)
(0.1196672375920789 0 0)
(0.1184659073532872 0 0)
(0.1165676576350721 0 0)
(0.1160627806863796 0 0)
(0.1150580241592639 0 0)
(0.1064571389561045 0 0)
(0.08799724386722962 0 0)
(0.03022921575309835 0 0)
(-0.06765638455758441 0 0)
(-0.1224027549614805 0 0)
(-0.1279826358832041 0 0)
(-0.1279568412091239 0 0)
(-0.1278834057050137 0 0)
(-0.1275093085238836 0 0)
(-0.1257110689246824 0 0)
(-0.1229259690957478 0 0)
(-0.1204393000674583 0 0)
(-0.1197449932294752 0 0)
(-0.1195237185186118 0 0)
(-0.1193635719981959 0 0)
(-0.1196394775378548 0 0)
(-0.1199808356626566 0 0)
(-0.1191208283662875 0 0)
(-0.1179555135542096 0 0)
(-0.1181460504577868 0 0)
(-0.1184085353120693 0 0)
(-0.1163723109617537 0 0)
(-0.1126318714308302 0 0)
(-0.1101790637168254 0 0)
(-0.09254794295777337 0 0)
(-0.04443540046041054 0 0)
(0.04983911907726954 0 0)
(0.1181226907037835 0 0)
(0.1285135029467047 0 0)
(0.1288503913026239 0 0)
(0.128506800281122 0 0)
(0.1278114624503207 0 0)
(0.1270205953080037 0 0)
(0.1241791961745042 0 0)
(0.1206817822837101 0 0)
(0.1194492567181071 0 0)
(0.1194999462260343 0 0)
(0.1196175044435269 0 0)
(0.1191700919161116 0 0)
(0.1187531808321386 0 0)
(0.1192191662293847 0 0)
(0.1192160982672075 0 0)
(0.1178124526721426 0 0)
(0.1162853850060537 0 0)
(0.1167707483863465 0 0)
(0.1153974694988854 0 0)
(0.1085406614976214 0 0)
(0.09715461495601092 0 0)
(0.05483828697528854 0 0)
(-0.03523757309660917 0 0)
(-0.1131519815803086 0 0)
(-0.128137955920153 0 0)
(-0.1285167752208815 0 0)
(-0.1286082653733199 0 0)
(-0.1282366141401291 0 0)
(-0.1266855635833226 0 0)
(-0.1243035708055172 0 0)
(-0.1210193759614328 0 0)
(-0.1194331455103002 0 0)
(-0.119036889092791 0 0)
(-0.1190789022358396 0 0)
(-0.1195697353416442 0 0)
(-0.1196176129900899 0 0)
(-0.1187193094401886 0 0)
(-0.1179786345750342 0 0)
(-0.1187023214936938 0 0)
(-0.1181729263089876 0 0)
(-0.1160777017645755 0 0)
(-0.1137505725701909 0 0)
(-0.1124430329180491 0 0)
(-0.09947629126773419 0 0)
(-0.06590768413683921 0 0)
(0.01592870330318783 0 0)
(0.1045816886050161 0 0)
(0.1288134790276374 0 0)
(0.1298088959928288 0 0)
(0.1294900380009644 0 0)
(0.1291028235386996 0 0)
(0.1286274869172198 0 0)
(0.126260354265958 0 0)
(0.122373013846716 0 0)
(0.1194521163644241 0 0)
(0.1188031529842387 0 0)
(0.1185594854750913 0 0)
(0.1180753183165056 0 0)
(0.118487033541753 0 0)
(0.1192900076708932 0 0)
(0.118823412653329 0 0)
(0.1174037794130476 0 0)
(0.1165038087689978 0 0)
(0.1174394575736005 0 0)
(0.1154931368722681 0 0)
(0.1098402839008747 0 0)
(0.1035310882979532 0 0)
(0.07384034372114745 0 0)
(-0.0004118371236961653 0 0)
(-0.09494384050510746 0 0)
(-0.1278784075569449 0 0)
(-0.1297490977018279 0 0)
(-0.1299668271201757 0 0)
(-0.1296326890133597 0 0)
(-0.1286774281512149 0 0)
(-0.1275914120317307 0 0)
(-0.1247257704321242 0 0)
(-0.1200869839996888 0 0)
(-0.1175790704090593 0 0)
(-0.1172370697417692 0 0)
(-0.1176452175135383 0 0)
(-0.1179621498841962 0 0)
(-0.1176155431629863 0 0)
(-0.1174587343817085 0 0)
(-0.1181045201952773 0 0)
(-0.1176598364164103 0 0)
(-0.1160844245067555 0 0)
(-0.1145298405133415 0 0)
(-0.1137296063299837 0 0)
(-0.1050140795156977 0 0)
(-0.08187300231016921 0 0)
(-0.01643513480626871 0 0)
(0.08125563859233299 0 0)
(0.1252829639854482 0 0)
(0.128559521751942 0 0)
(0.1285778952831109 0 0)
(0.1285773830825555 0 0)
(0.1285778848554167 0 0)
(0.1285706195670839 0 0)
(0.1285529205132559 0 0)
(0.1285007007275391 0 0)
(0.1283679805256302 0 0)
(0.1280528122161619 0 0)
(0.1273757593652789 0 0)
(0.1261235024662814 0 0)
(0.124184761556068 0 0)
(0.1214664174561966 0 0)
(0.1172049236457562 0 0)
(0.1084227293412034 0 0)
(0.08692279714710727 0 0)
(0.04441006782630257 0 0)
(0.007590286615132059 0 0)
(0.0001801309818521465 0 0)
(2.242740726363074e-07 0 0)
(-2.650610398798179e-12 0 0)
(-8.2299280251254e-12 0 0)
(-8.082189084864551e-12 0 0)
(-7.360875435355151e-12 0 0)
(-6.683014415334399e-12 0 0)
(-4.858003976815641e-12 0 0)
(-2.893945123935749e-12 0 0)
(-2.233465155710123e-12 0 0)
(-2.285608311096459e-12 0 0)
(-2.337751466482604e-12 0 0)
(-2.502871458538968e-12 0 0)
(-2.850492494447203e-12 0 0)
(-2.963469331117132e-12 0 0)
(-3.076446167787543e-12 0 0)
(-3.206804056252464e-12 0 0)
(-3.258947211639401e-12 0 0)
(-3.137279849071439e-12 0 0)
(-3.172041952662406e-12 0 0)
(-3.467519833184108e-12 0 0)
(-3.406686151900049e-12 0 0)
(-3.545734566263418e-12 0 0)
(-3.484900884978781e-12 0 0)
(-3.371924048309274e-12 0 0)
(-3.397995626002358e-12 0 0)
(-3.424067203695442e-12 0 0)
(-3.467519833183809e-12 0 0)
(-3.328471418820497e-12 0 0)
(-3.389305100104427e-12 0 0)
(-3.406686151900032e-12 0 0)
(-3.519662988570073e-12 0 0)
(-3.702164032421143e-12 0 0)
(-3.875974550376042e-12 0 0)
(-3.988951387045895e-12 0 0)
(-3.945498757557494e-12 0 0)
(-4.058475594227715e-12 0 0)
(-3.971570335250555e-12 0 0)
(-3.980260861148454e-12 0 0)
(-3.728235610114381e-12 0 0)
(-3.54573456626329e-12 0 0)
(-3.467519833183946e-12 0 0)
(-3.43275772959318e-12 0 0)
(-3.189423004457364e-12 0 0)
(-3.024303012400872e-12 0 0)
(-2.928707227526344e-12 0 0)
(-2.867873546242162e-12 0 0)
(-2.954778805219368e-12 0 0)
(-2.911326175730265e-12 0 0)
(-3.093827219582642e-12 0 0)
(-3.285018789332001e-12 0 0)
(-3.476210359081464e-12 0 0)
(-3.728235610114797e-12 0 0)
(-3.615258773444718e-12 0 0)
(-3.780378765501064e-12 0 0)
(-3.87597455037504e-12 0 0)
(-3.884665076273428e-12 0 0)
(-3.988951387045712e-12 0 0)
(-4.058475594227453e-12 0 0)
(-4.284429267567859e-12 0 0)
(-4.353953474749267e-12 0 0)
(-4.562526096294211e-12 0 0)
(-4.571216622191822e-12 0 0)
(-4.753717666043827e-12 0 0)
(-4.762408191940601e-12 0 0)
(-4.866694502713983e-12 0 0)
(-4.936218709895771e-12 0 0)
(-4.858003976816415e-12 0 0)
(-4.684193458862311e-12 0 0)
(-4.336572422954294e-12 0 0)
(-4.197524008591084e-12 0 0)
(-4.006332438841054e-12 0 0)
(-3.980260861148468e-12 0 0)
(-4.127999801409407e-12 0 0)
(-4.327881897056566e-12 0 0)
(-4.362644000646871e-12 0 0)
(-4.301810319363377e-12 0 0)
(-4.440858733726646e-12 0 0)
(-4.519073466806072e-12 0 0)
(-4.605978725782433e-12 0 0)
(-4.414787156033745e-12 0 0)
(-4.249667163977042e-12 0 0)
(-4.058475594227904e-12 0 0)
(-3.910736653966319e-12 0 0)
(-3.841212446785244e-12 0 0)
(-3.771688239603649e-12 0 0)
(-3.82383139498951e-12 0 0)
(-3.771688239603231e-12 0 0)
(-3.936808231659657e-12 0 0)
(-4.110618749613995e-12 0 0)
(-4.536454518601474e-12 0 0)
(-4.710265036554971e-12 0 0)
(-4.658121881169299e-12 0 0)
(-4.371334526545115e-12 0 0)
(-4.110618749614047e-12 0 0)
(-3.910736653966941e-12 0 0)
(-3.493591410876743e-12 0 0)
(-3.337161944718534e-12 0 0)
(-3.145970374969076e-12 0 0)
(-2.98954090881014e-12 0 0)
(-2.80703986495842e-12 0 0)
(-2.72882513187907e-12 0 0)
(-2.694063028288526e-12 0 0)
(-2.641919872902219e-12 0 0)
(-2.659300924697198e-12 0 0)
(-2.520252510334314e-12 0 0)
(-2.563705139822851e-12 0 0)
(-2.415966199561882e-12 0 0)
(-2.355132518277697e-12 0 0)
(-2.137869370835401e-12 0 0)
(-2.14655989673313e-12 0 0)
(-2.346441992380265e-12 0 0)
(-2.468109354947743e-12 0 0)
(-2.581086191617973e-12 0 0)
(-2.520252510334304e-12 0 0)
(-2.581086191617922e-12 0 0)
(-2.537633562129332e-12 0 0)
(-2.780968287265339e-12 0 0)
(-2.998231434707907e-12 0 0)
(-3.076446167787181e-12 0 0)
(-3.015612486503248e-12 0 0)
(-2.876564072139775e-12 0 0)
(-2.780968287265042e-12 0 0)
(-2.720134605981365e-12 0 0)
(-2.633229347004082e-12 0 0)
(-2.63322934700402e-12 0 0)
(-2.728825131879118e-12 0 0)
(-2.780968287265099e-12 0 0)
(-2.728825131879173e-12 0 0)
(-2.624538821106404e-12 0 0)
(-2.694063028288404e-12 0 0)
(-2.93739775342406e-12 0 0)
(-3.032993538298796e-12 0 0)
(-3.137279849070906e-12 0 0)
(-3.128589323173589e-12 0 0)
(-3.224185108048336e-12 0 0)
(-3.311090367025429e-12 0 0)
(-3.198113530355007e-12 0 0)
(-3.267637737536638e-12 0 0)
(-3.319780892923146e-12 0 0)
(-3.415376677797921e-12 0 0)
(-3.363233522411413e-12 0 0)
(-3.450138781388439e-12 0 0)
(-3.397995626002506e-12 0 0)
(-3.432757729593338e-12 0 0)
(-3.397995626002471e-12 0 0)
(-3.311090367025021e-12 0 0)
(-3.371924048309292e-12 0 0)
(-3.337161944718503e-12 0 0)
(-3.493591410876848e-12 0 0)
(-3.467519833183563e-12 0 0)
(-3.554425092161023e-12 0 0)
(-3.597877721649513e-12 0 0)
(-3.493591410876748e-12 0 0)
(-3.363233522410914e-12 0 0)
(-3.38930510010457e-12 0 0)
(-3.441448255490834e-12 0 0)
(-3.258947211638992e-12 0 0)
(-3.163351426763996e-12 0 0)
(-3.067755641889276e-12 0 0)
(-3.041684064196449e-12 0 0)
(-2.859183020344671e-12 0 0)
(-2.659300924697154e-12 0 0)
(-2.650610398799517e-12 0 0)
(-2.494180932641163e-12 0 0)
(-2.563705139822513e-12 0 0)
(-2.459418829050037e-12 0 0)
(-2.546324088027354e-12 0 0)
(-2.650610398799481e-12 0 0)
)
;

boundaryField
{
    inlet
    {
        type            zeroGradient;
    }
    outlet
    {
        type            pressureInletOutletVelocity;
        value           uniform (-2.650610398799481e-12 0 0);
    }
    frontAndBack
    {
        type            empty;
    }
}


// ************************************************************************* //
