/*--------------------------------*- C++ -*----------------------------------*\
| =========                 |                                                 |
| \\      /  F ield         | OpenFOAM: The Open Source CFD Toolbox           |
|  \\    /   O peration     | Version:  v2012                                 |
|   \\  /    A nd           | Website:  www.openfoam.com                      |
|    \\/     M anipulation  |                                                 |
\*---------------------------------------------------------------------------*/
FoamFile
{
    version     2.0;
    format      ascii;
    class       volScalarField;
    location    "0.0035";
    object      p;
}
// * * * * * * * * * * * * * * * * * * * * * * * * * * * * * * * * * * * * * //

dimensions      [1 -1 -2 0 0 0 0];


internalField   nonuniform List<scalar> 
1000
(
101339.0426224907
101336.429518544
101343.1316341573
101348.3972537314
101354.2350828442
101359.5072642695
101364.068051252
101367.9603198556
101371.2561953947
101373.4555727957
101374.0413289521
101374.0254899122
101373.6653326312
101372.6649325052
101370.7049030605
101367.7148332041
101363.804054404
101359.1530543821
101353.9112925864
101348.1787874961
101342.0363370332
101335.5734062575
101328.8969986197
101322.1311016923
101315.4133183311
101308.8837495495
101302.6624427193
101296.8214024311
101291.3689598696
101286.2924492458
101281.7501833183
101278.3960079347
101276.9776037852
101276.8189164102
101276.8947815094
101277.1660477744
101277.9234524544
101279.3990793577
101281.798908293
101285.2125432511
101289.5940867759
101294.7860880519
101300.5834658332
101306.7963885929
101313.2784778133
101319.918567591
101326.6188601139
101333.2801199871
101339.8012362686
101346.0958639284
101352.1208748801
101357.8800134003
101363.3277650075
101368.1068808212
101371.338690725
101372.4835695222
101372.5722444748
101372.5352123731
101372.2848109246
101371.6625635939
101370.4415951903
101368.4279975108
101365.4798601394
101361.5466036189
101356.6827024352
101351.0355432639
101344.8084828564
101338.2134796127
101331.4343904219
101324.6144036544
101317.8612764134
101311.2511568251
101304.8226325075
101298.5780760967
101292.5261286055
101286.8094122774
101281.951447317
101278.9137121535
101277.9716555724
101277.9102682805
101277.9737120023
101278.1932953317
101278.7636593779
101279.8597730677
101281.6645703087
101284.3236700972
101287.9196417097
101292.4500033055
101297.8233175885
101303.8752606943
101310.3991659151
101317.1823791974
101324.0400857626
101330.8383147197
101337.5006980501
101344.0014062578
101350.3479744775
101356.5357981925
101362.4161263119
101367.4363750229
101370.5954936124
101371.5918585391
101371.6575928272
101371.6271109549
101371.4349670135
101370.9564201525
101370.0152262591
101368.4440529184
101366.0923977232
101362.8530289904
101358.6826614346
101353.6168273552
101347.771300398
101341.3255139237
101334.4914405368
101327.4778953249
101320.4584741657
101313.547219019
101306.7892768912
101300.181944011
101293.747755538
101287.6930063803
101282.6578026913
101279.6512026283
101278.7778954187
101278.7248856883
101278.7735165168
101278.9486025419
101279.4043184475
101280.2854258119
101281.7496422531
101283.9384134778
101286.9597892634
101290.8688528045
101295.654296194
101301.2340025852
101307.4615672301
101314.1459354985
101321.0836048799
101328.0949980147
101335.0517713126
101341.8862262418
101348.5778348985
101355.0982765082
101361.2669814627
101366.4951728796
101369.7755329471
101370.8347220637
101370.9181275501
101370.8969773033
101370.749605607
101370.3736144409
101369.6198814683
101368.3420641402
101366.3981890489
101363.6696864074
101360.0776312889
101355.5988635709
101350.2766041507
101344.220181453
101337.5921445425
101330.5850089265
101323.390442311
101316.1657587718
101309.0110008586
101301.9787001201
101295.1421173957
101288.755260005
101283.4982991004
101280.3810637084
101279.4651398199
101279.4039116374
101279.440600578
101279.57927596
101279.9493683376
101280.674850116
101281.8946305165
101283.7406487404
101286.3256482856
101289.7276822903
101293.9771305301
101299.0476393768
101304.8531199536
101311.2547629164
101318.0806566637
101325.1540574076
101332.3211767068
101339.4698428262
101346.5287350451
101353.4222979803
101359.9333426898
101365.4553346552
101368.9731915468
101370.1700599317
101370.2835388509
101370.2705293037
101370.158714165
101369.8608969255
101369.2472787435
101368.1885656896
101366.553728756
101364.2242992321
101361.106694351
101357.1463117574
101352.3394710669
101346.7389678857
101340.4512626751
101333.6251990827
101326.4314035391
101319.0338651615
101311.5651001205
101304.1275818042
101296.851265508
101290.0463745556
101284.4446400215
101281.0943892392
101280.0734919294
101279.9938593461
101280.0215764732
101280.1306544438
101280.4329524575
101281.0369851573
101282.0671691131
101283.6455923919
101285.8830399402
101288.8669017865
101292.6503718495
101297.2430095807
101302.6042310124
101308.6437030637
101315.2318159249
101322.2182794992
101329.4534189688
101336.8068372533
101344.1729989373
101351.4356138725
101358.3408171895
101364.2580870715
101368.1376208622
101369.5575888813
101369.7228773794
101369.7165982991
101369.631536468
101369.3954949048
101368.8926983836
101368.0074000688
101366.6185411551
101364.6115482627
101361.887679161
101358.3755003171
101354.0416233761
101348.8978687618
101343.003435134
101336.4612488386
101329.4061626347
101321.9846400541
101314.3347100441
101306.5859663243
101298.9087749426
101291.6557242006
101285.5994039822
101281.8598673184
101280.6357180167
101280.5200420547
101280.5400408064
101280.6240950714
101280.8712437686
101281.3776581291
101282.2554926842
101283.6171316139
101285.5689628505
101288.2018188498
101291.581956308
101295.7421525134
101300.6743255841
101306.3270254336
101312.6102898083
101319.4067351077
101326.5860787379
101334.0202666434
101341.5898214364
101349.1544537227
101356.440117988
101362.8127779035
101367.1875399337
101368.9566634646
101369.2139683211
101369.2140361385
101369.1514480769
101368.9654058988
101368.5525640997
101367.8084286473
101366.621272246
101364.8817723828
101362.4902130513
101359.3659830922
101355.4567667766
101350.7455811356
101345.2550640499
101339.0481889182
101332.2225408313
101324.8970830535
101317.1983821821
101309.2622744443
101301.2763270735
101293.6070561488
101287.0345778513
101282.7539948305
101281.1939922226
101281.0069831115
101281.0197676593
101281.0809120671
101281.2796055569
101281.7020283604
101282.4513645955
101283.6316249198
101285.3439189026
101287.6788978327
101290.709528887
101294.4832921604
101299.0150687929
101304.2834036855
101310.2318471342
101316.7746837127
101323.8060066884
101331.2109275415
101338.8708455964
101346.6390054088
101354.2433194671
101361.07725372
101366.0485689811
101368.3143274229
101368.7342488712
101368.7433393623
101368.7007285155
101368.55786966
101368.2219156477
101367.5974318954
101366.5804623416
101365.0672417165
101362.9595860046
101360.1725631766
101356.6420105224
101352.3308959484
101347.2344941436
101341.3834666809
101334.8419390433
101327.6996647391
101320.0639654219
101312.0634028333
101303.8834777125
101295.8765639875
101288.787439415
101283.84878964
101281.791677494
101281.4688384369
101281.4734689313
101281.5142557979
101281.6706899874
101282.0193236558
101282.6566510511
101283.6799733437
101285.1856539423
101287.2629143352
101289.9879062727
101293.4171271614
101297.5812737441
101302.4812269119
101308.0871265805
101314.3405416339
101321.1599177592
101328.4484046413
101336.0970554466
101343.9646773056
101351.7984529442
101359.0483662844
101364.6628620279
101367.5733457342
101368.2610902129
101368.2923991373
101368.2669852848
101368.1618438387
101367.8936195335
101367.373686908
101366.5044825521
101365.187161073
101363.3260542599
101360.834713479
101357.6418692851
101353.6969456704
101348.9753937122
101343.4828156324
101337.255298487
101330.3555759471
101322.8695129488
101314.9110414697
101306.650943342
101298.4079839217
101290.8561282951
101285.2033622918
101282.4835616865
101281.9231609272
101281.90826129
101281.9333740653
101282.0527836652
101282.3361829154
101282.8741822552
101283.7587675314
101285.082261933
101286.9320487737
101289.3858619451
101292.5060158581
101296.3339152387
101300.8864491556
101306.1543536534
101312.1019027729
101318.6690588122
101325.7769145921
101333.3304467338
101341.202155122
101349.1678406936
101356.7497058679
101362.9882810617
101366.66498029
101367.7726396907
101367.8652503141
101367.8477496737
101367.7751560343
101367.5644193383
101367.1355728343
101366.3957752993
101365.2507200292
101363.6073431666
101361.37889796
101358.4897108256
101354.8800991841
101350.5114149408
101345.3701978071
101339.4698469679
101332.8499087649
101325.5756587911
101317.7429621232
101309.5007958432
101301.1251675604
101293.2006619691
101286.8503887704
101283.3367869943
101282.3964595436
101282.3353909105
101282.3501037087
101282.4361213776
101282.6604038254
101283.1080968997
101283.866893954
101285.0260621872
101286.6714725814
101288.8814564867
101291.721918381
101295.2417991965
101299.4697684882
101304.4118988128
101310.050201009
101316.3433770881
101323.2301247961
101330.6300341461
101338.4304124808
101346.4374063536
101354.2489036396
101361.0269291787
101365.5066096651
101367.1884978526
101367.4079453391
101367.4002359923
101367.3529307193
101367.1944258554
101366.8522959993
101366.2413180442
101365.2762665443
101363.8746644553
101361.9626566618
101359.4812663855
101356.3937262398
101352.6940015429
101348.4174406562
101343.6572788147
101338.5979561248
101333.5863856472
101329.2363725262
101326.3509093135
101325.2052434049
101325.0099718636
101325.0001010706
101325.0000001442
101325.0000000009
101325.0000000009
101325.0000000009
101325.0000000009
101325.0000000009
101325.0000000009
101325.0000000009
101325.000000001
101325.000000001
101325.000000001
101325.000000001
101325.0000000011
101325.0000000011
101325.0000000011
101325.000000001
101325.000000001
101325.000000001
101325.000000001
101325.000000001
101325.000000001
101325.000000001
101325.000000001
101325.000000001
101325.0000000009
101325.0000000008
101325.0000000008
101325.0000000009
101325.0000000009
101325.0000000008
101325.0000000008
101325.0000000008
101325.0000000008
101325.0000000007
101325.0000000007
101325.0000000007
101325.0000000006
101325.0000000006
101325.0000000006
101325.0000000006
101325.0000000006
101325.0000000006
101325.0000000007
101325.0000000007
101325.0000000006
101325.0000000006
101325.0000000006
101325.0000000006
101325.0000000006
101325.0000000006
101325.0000000006
101325.0000000006
101325.0000000006
101325.0000000006
101325.0000000006
101325.0000000006
101325.0000000006
101325.0000000006
101325.0000000006
101325.0000000005
101325.0000000005
101325.0000000004
101325.0000000004
101325.0000000005
101325.0000000005
101325.0000000005
101325.0000000005
101325.0000000006
101325.0000000006
101325.0000000006
101325.0000000006
101325.0000000006
101325.0000000005
101325.0000000004
101325.0000000004
101325.0000000004
101325.0000000003
101325.0000000004
101325.0000000004
101325.0000000004
101325.0000000004
101325.0000000003
101325.0000000004
101325.0000000005
101325.0000000006
101325.0000000005
101325.0000000006
101325.0000000006
101325.0000000006
101325.0000000006
101325.0000000005
101325.0000000005
101325.0000000005
101325.0000000006
101325.0000000005
101325.0000000004
101325.0000000004
101325.0000000003
101325.0000000004
101325.0000000005
101325.0000000005
101325.0000000005
101325.0000000006
101325.0000000007
101325.0000000007
101325.0000000008
101325.0000000008
101325.0000000008
101325.0000000007
101325.0000000008
101325.0000000008
101325.0000000007
101325.0000000007
101325.0000000007
101325.0000000007
101325.0000000007
101325.0000000007
101325.0000000007
101325.0000000007
101325.0000000007
101325.0000000007
101325.0000000007
101325.0000000007
101325.0000000007
101325.0000000008
101325.0000000008
101325.0000000008
101325.0000000008
101325.0000000008
101325.0000000008
101325.0000000008
101325.0000000007
101325.0000000007
101325.0000000007
101325.0000000008
101325.0000000008
101325.0000000009
101325.000000001
101325.000000001
101325.0000000011
101325.000000001
101325.000000001
101325.000000001
101325.000000001
101325.000000001
101325.0000000011
101325.0000000011
101325.0000000011
101325.0000000011
101325.0000000011
101325.000000001
101325.0000000009
101325.0000000009
101325.0000000009
101325.0000000009
101325.0000000009
101325.0000000008
101325.0000000009
101325.0000000009
101325.0000000008
101325.0000000008
101325.0000000008
101325.0000000008
101325.0000000008
101325.0000000008
101325.0000000008
101325.0000000007
101325.0000000007
101325.0000000008
101325.0000000008
101325.0000000008
101325.0000000009
101325.0000000009
101325.0000000009
101325.0000000009
101325.0000000009
101325.0000000009
101325.0000000008
101325.0000000009
101325.000000001
101325.000000001
101325.000000001
101325.000000001
101325.000000001
101325.000000001
101325.0000000009
101325.0000000008
101325.0000000008
101325.0000000008
101325.0000000007
101325.0000000008
101325.0000000008
101325.0000000007
101325.0000000007
101325.0000000007
101325.0000000008
101325.0000000007
101325.0000000008
101325.0000000007
101325.0000000007
101325.0000000007
101325.0000000005
101325.0000000004
101325.0000000002
101325.0000000001
101325
101324.9999999999
101324.9999999997
101324.9999999994
101324.9999999993
101324.9999999991
101324.999999999
101324.999999999
101324.9999999989
101324.9999999989
101324.9999999989
101324.9999999989
101324.999999999
101324.999999999
101324.9999999989
101324.9999999988
101324.9999999987
101324.9999999986
101324.9999999984
101324.9999999983
101324.9999999981
101324.9999999979
101324.9999999977
101324.9999999975
101324.9999999973
101324.999999997
101324.9999999969
101324.9999999967
101324.9999999966
101324.9999999965
101324.9999999965
101324.9999999964
101324.9999999963
101324.9999999964
101324.9999999964
101324.9999999964
101324.9999999964
101324.9999999963
101324.9999999963
101324.9999999962
101324.9999999962
101324.9999999961
101324.9999999961
101324.9999999961
101324.999999996
101324.999999996
101324.999999996
101324.999999996
101324.999999996
101324.9999999959
101324.9999999958
101324.9999999958
101324.9999999958
101324.9999999958
101324.9999999957
101324.9999999958
101324.9999999957
101324.9999999957
101324.9999999958
101324.9999999957
101324.9999999956
101324.9999999956
101324.9999999956
101324.9999999955
101324.9999999955
101324.9999999955
101324.9999999954
101324.9999999955
101324.9999999955
101324.9999999954
101324.9999999955
101324.9999999954
101324.9999999953
101324.9999999953
101324.9999999953
101324.9999999953
101324.9999999953
101324.9999999953
101324.9999999952
101324.9999999952
101324.9999999953
101324.9999999953
101324.9999999954
101324.9999999954
101324.9999999954
101324.9999999954
101324.9999999954
101324.9999999953
101324.9999999953
101324.9999999953
101324.9999999953
101324.9999999952
101324.9999999952
101324.9999999951
101324.999999995
101324.9999999949
101324.9999999948
101324.9999999946
101324.9999999945
101324.9999999943
101324.9999999941
101324.9999999939
101324.9999999936
101324.9999999934
101324.9999999931
101324.9999999929
101324.9999999927
101324.9999999925
101324.9999999923
101324.9999999921
101324.9999999919
101324.9999999916
101324.9999999914
101324.9999999911
101324.9999999909
101324.9999999905
101324.9999999902
101324.9999999899
101324.9999999896
101324.9999999894
101324.9999999891
101324.9999999889
101324.9999999886
101324.9999999884
101324.9999999883
101324.9999999882
101324.999999988
101324.9999999879
101324.9999999878
101324.9999999876
101324.9999999874
101324.9999999873
101324.9999999871
101324.999999987
101324.9999999869
101324.9999999867
101324.9999999866
101324.9999999863
101324.999999986
101324.9999999857
101324.9999999854
101324.9999999853
101324.999999985
101324.9999999848
101324.9999999846
101324.9999999844
101324.9999999841
101324.9999999839
101324.9999999836
101324.9999999834
101324.9999999832
101324.9999999831
101324.9999999831
101324.999999983
101324.9999999828
101324.9999999827
101324.9999999826
101324.9999999823
101324.9999999821
101324.9999999818
101324.9999999816
101324.9999999814
101324.9999999811
101324.9999999808
101324.9999999805
101324.9999999802
101324.9999999799
101324.9999999796
101324.9999999794
101324.9999999791
101324.9999999789
101324.9999999787
101324.9999999784
101324.999999978
101324.9999999777
101324.9999999774
101324.9999999771
101324.9999999768
101324.9999999765
101324.9999999763
101324.9999999762
101324.999999976
101324.9999999759
101324.9999999758
101324.9999999757
101324.9999999756
101324.9999999756
101324.9999999756
101324.9999999757
101324.9999999758
101324.9999999758
101324.999999976
101324.9999999761
101324.9999999763
101324.9999999765
101324.9999999766
101324.9999999767
101324.9999999768
101324.9999999769
101324.999999977
101324.999999977
101324.9999999771
101324.9999999772
101324.9999999774
101324.9999999775
101324.9999999776
101324.9999999776
101324.9999999776
101324.9999999777
101324.9999999778
101324.9999999778
101324.9999999779
101324.9999999782
101324.9999999783
101324.9999999784
101324.9999999785
101324.9999999786
101324.9999999786
101324.9999999787
101324.9999999787
101324.9999999787
101324.9999999788
101324.9999999789
101324.999999979
101324.9999999791
101324.9999999792
101324.9999999793
101324.9999999794
101324.9999999795
101324.9999999797
101324.9999999799
101324.9999999799
101324.99999998
101324.9999999801
101324.9999999802
101324.9999999803
101324.9999999803
101324.9999999804
101324.9999999803
101324.9999999804
101324.9999999803
101324.9999999804
101324.9999999803
101324.9999999802
101324.9999999802
101324.9999999803
101324.9999999804
101324.9999999805
101324.9999999806
101324.9999999806
101324.9999999806
101324.9999999807
101324.9999999807
101324.9999999808
101324.9999999809
101324.9999999811
101324.9999999811
101324.9999999811
101324.9999999811
101324.9999999811
101324.9999999812
101324.9999999812
101324.9999999811
101324.9999999811
101324.9999999812
101324.9999999812
101324.9999999812
101324.9999999812
101324.9999999812
101324.9999999813
101324.9999999812
101324.9999999813
101324.9999999812
101324.9999999813
101324.9999999814
101324.9999999814
101324.9999999813
101324.9999999813
101324.9999999813
101324.9999999813
101324.9999999814
101324.9999999814
101324.9999999815
101324.9999999815
101324.9999999814
101324.9999999815
101324.9999999815
101324.9999999815
101324.9999999815
101324.9999999815
101324.9999999815
101324.9999999815
101324.9999999815
101324.9999999815
101324.9999999815
101324.9999999815
101324.9999999815
101324.9999999815
101324.9999999815
101324.9999999814
101324.9999999814
101324.9999999813
101324.9999999813
)
;

boundaryField
{
    inlet
    {
        type            uniformFixedValue;
        uniformValue    sine;
        uniformValueCoeffs
        {
            frequency       constant 3000;
            scale           constant 50;
            level           constant 101325;
        }
        value           uniform 101326.3578702043;
    }
    outlet
    {
        type            pressureOutletNSCBC;
        pInf            101325;
        gamma           1.4;
        etaAc           1;
        fieldInf        1;
        lInf            2.25;
        value           uniform 101324.9999999813;
    }
    frontAndBack
    {
        type            empty;
    }
}


// ************************************************************************* //
