/*--------------------------------*- C++ -*----------------------------------*\
| =========                 |                                                 |
| \\      /  F ield         | OpenFOAM: The Open Source CFD Toolbox           |
|  \\    /   O peration     | Version:  v2012                                 |
|   \\  /    A nd           | Website:  www.openfoam.com                      |
|    \\/     M anipulation  |                                                 |
\*---------------------------------------------------------------------------*/
FoamFile
{
    version     2.0;
    format      ascii;
    class       volScalarField;
    location    "0.0035";
    object      pMean;
}
// * * * * * * * * * * * * * * * * * * * * * * * * * * * * * * * * * * * * * //

dimensions      [1 -1 -2 0 0 0 0];


internalField   nonuniform List<scalar> 
1000
(
101326.4401588688
101326.4966599149
101326.4605318954
101326.4301156419
101326.3748136248
101326.3116369728
101326.2354981705
101326.1528623802
101326.0612497274
101325.9645079878
101325.8637129469
101325.763142387
101325.6624708898
101325.563455359
101325.4670487035
101325.3757500441
101325.2911324303
101325.2153395476
101325.1493815228
101325.0947677312
101325.052105054
101325.0224898527
101325.0062049353
101325.0038599388
101325.0152581808
101325.0404318876
101325.0786779741
101325.1295124351
101325.1919075383
101325.265309549
101325.3487571897
101325.4408972123
101325.5383156094
101325.6373751549
101325.736382258
101325.8351875788
101325.9328298958
101326.0285027664
101326.120168519
101326.2062323795
101326.2842937148
101326.3528580003
101326.4100872129
101326.4552359236
101326.4872280951
101326.5059343873
101326.5107698528
101326.5020137169
101326.4795149523
101326.4439671437
101326.3955575119
101326.3351188849
101326.2628847749
101326.1800155207
101326.0882587535
101325.9917373526
101325.8938509845
101325.7961010822
101325.6985627571
101325.6018800636
101325.5069706059
101325.4152425118
101325.3284231848
101325.2484954258
101325.1774163705
101325.1169880466
101325.0686300759
101325.0333744748
101325.011816716
101325.0042284986
101325.010591328
101325.0307232247
101325.0642956224
101325.1109469333
101325.1702870949
101325.2418664114
101325.3246722885
101325.4161857025
101325.5121018362
101325.6089523361
101325.7057456726
101325.8023364862
101325.8980744458
101325.9923031578
101326.0835766216
101326.1705305932
101326.2511293934
101326.3236612824
101326.3860717276
101326.4369739596
101326.4749429576
101326.4993938441
101326.5097443995
101326.5061499159
101326.4885988253
101326.4575937846
101326.4132572063
101326.3560694505
101326.2862352121
101326.2049520706
101326.1146121766
101326.0197471665
101325.9237596859
101325.8278704062
101325.7321492823
101325.6370882463
101325.5433887986
101325.4521593936
101325.3648003346
101325.2830232613
101325.20866954
101325.1436424824
101325.0896623672
101325.0482064079
101325.0203084178
101325.0066151478
101325.0073190041
101325.0223687268
101325.0514851972
101325.0943925518
101325.1507568354
101325.2201345651
101325.301309979
101325.3913608636
101325.4856793131
101325.5808603707
101325.6759967189
101325.7709721335
101325.8652678882
101325.9583529733
101326.0490517598
101326.1362213069
101326.2181096245
101326.2931337074
101326.3593026629
101326.4150538868
101326.4587104205
101326.4892687822
101326.5057960448
101326.5080842268
101326.4959313729
101326.4696709605
101326.4293998292
101326.3755636367
101326.3084459553
101326.2293394343
101326.1408323718
101326.0475937345
101325.953150604
101325.8587729609
101325.7645104432
101325.6707706427
101325.5781055558
101325.4874429843
101325.3999455774
101325.3171116282
101325.2405889927
101325.1722018548
101325.1137055466
101325.0667746798
101325.0327528291
101325.0126845646
101325.0071513503
101325.0164443959
101325.0405120932
101325.0792127375
101325.1322194317
101325.1990209513
101325.2782029233
101325.3666259265
101325.4594738627
101325.553257274
101325.6470092937
101325.7406413412
101325.8337212491
101325.9258127033
101326.0159262802
101326.1030812366
101326.1857527607
101326.262500681
101326.3314747114
101326.3910983052
101326.4396118509
101326.4757665705
101326.4983350721
101326.506738367
101326.5004557163
101326.4795369457
101326.4439236452
101326.393980076
101326.3300273309
101326.2534156728
101326.1668496255
101326.0751219286
101325.9820140666
101325.8889320528
101325.7959236142
101325.7033325255
101325.6116003402
101325.521519841
101325.4340761817
101325.3505877434
101325.2725250858
101325.2015877396
101325.1394759303
101325.0879224139
101325.0484354976
101325.0223380999
101325.0105555727
101325.0137447603
101325.0321832996
101325.0659755877
101325.1149373127
101325.1785817374
101325.255407638
101325.3420895229
101325.4335724766
101325.5261267457
101325.6186784594
101325.711136282
101325.8031481422
101325.8943423677
101325.9838791621
101326.0708984882
101326.1540645406
101326.2320682334
101326.3032102917
101326.3659583869
101326.418562935
101326.4596417534
101326.4877845823
101326.502112852
101326.501813426
101326.4866106749
101326.4562156684
101326.4107976976
101326.3506066856
101326.2769389909
101326.1925325752
101326.1023037094
101326.010398926
101325.9184607092
101325.8265686128
101325.7350065099
101325.6441377149
101325.5546391858
101325.4673616026
101325.3834704796
101325.3042816782
101325.2313644207
101325.1663286198
101325.1108940689
101325.066637346
101325.0350553965
101325.0173243445
101325.014420649
101325.026944538
101325.0553073161
101325.099549953
101325.1593425403
101325.2332371814
101325.3178854293
101325.407992264
101325.4994398405
101325.5909154952
101325.6823301217
101325.7733736169
101325.8637506932
101325.9527139433
101326.0395299963
101326.1229939627
101326.2019389033
101326.2747871867
101326.3400954098
101326.3961479356
101326.4415189148
101326.4746837821
101326.4945603228
101326.5000918226
101326.4907115561
101326.4658761747
101326.4255118658
101326.3697048777
101326.2995728394
101326.217731154
101326.129117744
101326.038347862
101325.9474422383
101325.8565658786
101325.7659439902
101325.6758868845
101325.5869639313
101325.499931185
101325.4158049323
101325.3357887048
101325.2613021117
101325.1938822817
101325.1351696807
101325.0867840404
101325.0502836086
101325.0270500073
101325.0182674271
101325.024854062
101325.0474765692
101325.0864820296
101325.1417375053
101325.2120472093
101325.2941906718
101325.3827957437
101325.4731730068
101325.5636682643
101325.6541038367
101325.7442618992
101325.8338578934
101325.922274303
101326.0088274606
101326.0924743697
101326.1721193884
101326.2463473046
101326.3137619635
101326.3727499443
101326.4218442496
101326.4595023595
101326.4844727686
101326.4955497893
101326.4919000318
101326.4727717252
101326.4378221133
101326.38694008
101326.3209575891
101326.2422075073
101326.1554725509
101326.0658459055
101325.9759086815
101325.8859816182
101325.7962492414
101325.7069646624
101325.6186214247
101325.5318792719
101325.4476492721
101325.3670133133
101325.2912823842
101325.2218863686
101325.1604058944
101325.1084289241
101325.0675641721
101325.0392885291
101325.0249713513
101325.0257395073
101325.0425264712
101325.0759255464
101325.1260920867
101325.1921321497
101325.2712107166
101325.35802743
101325.4473402702
101325.5368951866
101325.6264187468
101325.7157179843
101325.8045754878
101325.8924292573
101325.9786951228
101326.0624112056
101326.1426001642
101326.2179351178
101326.2871250905
101326.3486095711
101326.4009629916
101326.4426107547
101326.4722365515
101326.4884934764
101326.4903823216
101326.4769408741
101326.4476172678
101326.4020556843
101326.3407851118
101326.2657015994
101326.1812457824
101326.0928545626
101326.0038551792
101325.9148333492
101325.8259667805
101325.7374319507
101325.6496828609
101325.5632704915
101325.4790401717
101325.3979456841
101325.3212215003
101325.2501767381
101325.1863418106
101325.1312375034
101325.0865001652
101325.0536405753
101325.0341651743
101325.029341588
101325.040328416
101325.0679277985
101325.1125878957
101325.173761892
101325.2491502988
101325.3337742628
101325.4219361224
101325.5105826541
101325.5992280316
101325.687693936
101325.7758235497
101325.8631051641
101325.9490424967
101326.03274487
101326.1133390135
101326.1895765917
101326.2602654603
101326.3239007192
101326.3791123812
101326.4243177358
101326.4581764951
101326.4792438985
101326.4864083949
101326.4785346014
101326.4549023676
101326.4149223666
101326.358825309
101326.2879936114
101326.2063336854
101326.1193752964
101326.0313040304
101325.9431494563
101325.8551130308
101325.7673285539
101325.6801745409
101325.5941488265
101325.509993004
101325.4285918783
101325.3510651915
101325.2786548208
101325.2127920255
101325.154966837
101325.1067730123
101325.069766734
101325.0454990366
101325.0353752147
101325.040685122
101325.0624474146
101325.1013329415
101325.1571896784
101325.2282765577
101325.3102074196
101325.3970123148
101325.4847551046
101325.5725205835
101325.660170699
101325.7475490266
101325.8342514424
101325.9197998295
101326.0034284164
101326.0842953617
101326.1612835221
101326.2332300833
101326.2987458767
101326.3564612252
101326.4048631539
101326.4425510203
101326.4680769152
101326.4801948628
101326.4776974467
101326.4596693043
101326.4253776018
101326.3747239879
101326.3086541307
101326.2303679424
101326.1452460293
101326.0582066344
101325.9709873083
101325.8838413689
101325.7968860256
101325.7104130034
101325.6248679858
101325.5408733352
101325.4592246002
101325.3808800672
101325.3069378513
101325.2385993211
101325.1771165972
101325.1237211979
101325.0795272062
101325.045389699
101325.0216678627
101325.0078060433
101325.0017824834
101325.0001965844
101325.0000072786
101325.0000000604
101325.0000000005
101325.0000000005
101325.0000000005
101325.0000000005
101325.0000000005
101325.0000000005
101325.0000000005
101325.0000000005
101325.0000000005
101325.0000000005
101325.0000000005
101325.0000000004
101325.0000000004
101325.0000000004
101325.0000000004
101325.0000000004
101325.0000000004
101325.0000000004
101325.0000000004
101325.0000000004
101325.0000000004
101325.0000000004
101325.0000000005
101325.0000000005
101325.0000000005
101325.0000000005
101325.0000000005
101325.0000000005
101325.0000000005
101325.0000000005
101325.0000000005
101325.0000000005
101325.0000000004
101325.0000000004
101325.0000000004
101325.0000000004
101325.0000000005
101325.0000000005
101325.0000000004
101325.0000000005
101325.0000000005
101325.0000000005
101325.0000000005
101325.0000000005
101325.0000000004
101325.0000000004
101325.0000000004
101325.0000000004
101325.0000000005
101325.0000000005
101325.0000000005
101325.0000000005
101325.0000000005
101325.0000000005
101325.0000000005
101325.0000000005
101325.0000000005
101325.0000000005
101325.0000000005
101325.0000000005
101325.0000000005
101325.0000000005
101325.0000000005
101325.0000000005
101325.0000000005
101325.0000000005
101325.0000000005
101325.0000000005
101325.0000000005
101325.0000000005
101325.0000000005
101325.0000000005
101325.0000000005
101325.0000000005
101325.0000000005
101325.0000000005
101325.0000000005
101325.0000000005
101325.0000000005
101325.0000000005
101325.0000000005
101325.0000000005
101325.0000000005
101325.0000000005
101325.0000000005
101325.0000000005
101325.0000000005
101325.0000000005
101325.0000000005
101325.0000000005
101325.0000000005
101325.0000000005
101325.0000000005
101325.0000000005
101325.0000000004
101325.0000000005
101325.0000000005
101325.0000000005
101325.0000000005
101325.0000000005
101325.0000000005
101325.0000000005
101325.0000000005
101325.0000000005
101325.0000000005
101325.0000000005
101325.0000000005
101325.0000000005
101325.0000000005
101325.0000000005
101325.0000000005
101325.0000000005
101325.0000000005
101325.0000000005
101325.0000000005
101325.0000000005
101325.0000000005
101325.0000000005
101325.0000000005
101325.0000000005
101325.0000000005
101325.0000000005
101325.0000000005
101325.0000000005
101325.0000000005
101325.0000000005
101325.0000000005
101325.0000000005
101325.0000000005
101325.0000000006
101325.0000000006
101325.0000000005
101325.0000000005
101325.0000000005
101325.0000000005
101325.0000000006
101325.0000000006
101325.0000000006
101325.0000000006
101325.0000000006
101325.0000000005
101325.0000000005
101325.0000000005
101325.0000000005
101325.0000000005
101325.0000000006
101325.0000000006
101325.0000000005
101325.0000000006
101325.0000000005
101325.0000000005
101325.0000000005
101325.0000000005
101325.0000000005
101325.0000000006
101325.0000000005
101325.0000000005
101325.0000000005
101325.0000000005
101325.0000000005
101325.0000000005
101325.0000000005
101325.0000000005
101325.0000000005
101325.0000000005
101325.0000000005
101325.0000000005
101325.0000000004
101325.0000000005
101325.0000000005
101325.0000000005
101325.0000000005
101325.0000000005
101325.0000000005
101325.0000000005
101325.0000000005
101325.0000000005
101325.0000000005
101325.0000000005
101325.0000000005
101325.0000000005
101325.0000000005
101325.0000000005
101325.0000000005
101325.0000000005
101325.0000000005
101325.0000000005
101325.0000000005
101325.0000000005
101325.0000000005
101325.0000000005
101325.0000000005
101325.0000000005
101325.0000000005
101325.0000000005
101325.0000000005
101325.0000000005
101325.0000000005
101325.0000000005
101325.0000000005
101325.0000000005
101325.0000000005
101325.0000000005
101325.0000000005
101325.0000000005
101325.0000000005
101325.0000000005
101325.0000000006
101325.0000000005
101325.0000000006
101325.0000000005
101325.0000000005
101325.0000000004
101325.0000000004
101325.0000000004
101325.0000000004
101325.0000000004
101325.0000000004
101325.0000000004
101325.0000000004
101325.0000000004
101325.0000000004
101325.0000000004
101325.0000000004
101325.0000000004
101325.0000000004
101325.0000000004
101325.0000000004
101325.0000000003
101325.0000000003
101325.0000000003
101325.0000000003
101325.0000000003
101325.0000000003
101325.0000000003
101325.0000000003
101325.0000000003
101325.0000000002
101325.0000000002
101325.0000000003
101325.0000000003
101325.0000000003
101325.0000000002
101325.0000000002
101325.0000000002
101325.0000000002
101325.0000000002
101325.0000000002
101325.0000000002
101325.0000000002
101325.0000000002
101325.0000000002
101325.0000000002
101325.0000000001
101325.0000000002
101325.0000000001
101325.0000000001
101325.0000000001
101325.0000000001
101325.0000000001
101325.0000000001
101325
101325
101325
101325
101325
101325
101324.9999999999
101324.9999999999
101324.9999999999
101324.9999999999
101324.9999999999
101324.9999999999
101324.9999999999
101324.9999999999
101324.9999999999
101324.9999999998
101324.9999999998
101324.9999999998
101324.9999999998
101324.9999999998
101324.9999999998
101324.9999999998
101324.9999999997
101324.9999999997
101324.9999999998
101324.9999999998
101324.9999999997
101324.9999999998
101324.9999999998
101324.9999999998
101324.9999999998
101324.9999999997
101324.9999999997
101324.9999999997
101324.9999999997
101324.9999999997
101324.9999999996
101324.9999999996
101324.9999999996
101324.9999999996
101324.9999999996
101324.9999999996
101324.9999999995
101324.9999999995
101324.9999999995
101324.9999999995
101324.9999999994
101324.9999999994
101324.9999999994
101324.9999999994
101324.9999999994
101324.9999999994
101324.9999999994
101324.9999999994
101324.9999999994
101324.9999999994
101324.9999999993
101324.9999999993
101324.9999999992
101324.9999999993
101324.9999999992
101324.9999999992
101324.9999999992
101324.9999999992
101324.9999999992
101324.9999999992
101324.9999999992
101324.9999999991
101324.9999999991
101324.9999999991
101324.9999999991
101324.9999999991
101324.999999999
101324.999999999
101324.999999999
101324.999999999
101324.999999999
101324.9999999989
101324.9999999988
101324.9999999988
101324.9999999988
101324.9999999988
101324.9999999987
101324.9999999987
101324.9999999986
101324.9999999986
101324.9999999986
101324.9999999986
101324.9999999985
101324.9999999985
101324.9999999985
101324.9999999985
101324.9999999984
101324.9999999984
101324.9999999983
101324.9999999983
101324.9999999982
101324.9999999982
101324.9999999981
101324.9999999981
101324.9999999981
101324.999999998
101324.999999998
101324.9999999979
101324.9999999978
101324.9999999978
101324.9999999978
101324.9999999977
101324.9999999977
101324.9999999977
101324.9999999977
101324.9999999976
101324.9999999976
101324.9999999975
101324.9999999974
101324.9999999974
101324.9999999974
101324.9999999973
101324.9999999972
101324.9999999972
101324.9999999971
101324.9999999971
101324.9999999971
101324.999999997
101324.999999997
101324.9999999969
101324.9999999969
101324.9999999968
101324.9999999968
101324.9999999967
101324.9999999967
101324.9999999966
101324.9999999966
101324.9999999965
101324.9999999964
101324.9999999963
101324.9999999963
101324.9999999963
101324.9999999963
101324.9999999962
101324.9999999962
101324.9999999962
101324.9999999961
101324.999999996
101324.999999996
101324.9999999959
101324.9999999958
101324.9999999958
101324.9999999957
101324.9999999957
101324.9999999956
101324.9999999955
101324.9999999955
101324.9999999954
101324.9999999954
101324.9999999953
101324.9999999953
101324.9999999952
101324.9999999951
101324.9999999951
101324.9999999951
101324.9999999951
101324.9999999951
101324.999999995
101324.9999999949
101324.9999999949
101324.9999999948
101324.9999999947
101324.9999999947
101324.9999999946
101324.9999999945
101324.9999999945
101324.9999999945
101324.9999999944
101324.9999999944
101324.9999999944
101324.9999999943
101324.9999999943
101324.9999999943
101324.9999999942
101324.9999999942
101324.9999999941
101324.9999999941
101324.999999994
101324.999999994
101324.999999994
101324.999999994
101324.9999999939
101324.9999999939
101324.9999999939
101324.9999999938
101324.9999999938
101324.9999999937
101324.9999999937
101324.9999999937
101324.9999999937
101324.9999999936
101324.9999999935
101324.9999999935
101324.9999999935
101324.9999999934
101324.9999999933
101324.9999999933
101324.9999999933
101324.9999999933
101324.9999999932
101324.9999999931
101324.9999999931
101324.9999999931
101324.9999999931
101324.9999999931
101324.999999993
101324.9999999929
101324.9999999928
101324.9999999928
101324.9999999928
101324.9999999928
101324.9999999928
101324.9999999927
101324.9999999927
101324.9999999927
101324.9999999926
101324.9999999925
101324.9999999925
101324.9999999925
101324.9999999924
101324.9999999924
101324.9999999924
101324.9999999924
101324.9999999923
101324.9999999923
101324.9999999922
101324.9999999922
101324.9999999921
101324.9999999921
101324.9999999921
101324.999999992
101324.9999999919
101324.9999999919
101324.9999999918
101324.9999999917
101324.9999999917
101324.9999999917
101324.9999999916
101324.9999999916
101324.9999999915
101324.9999999914
)
;

boundaryField
{
    inlet
    {
        type            calculated;
        value           uniform 101326.5156681794;
    }
    outlet
    {
        type            calculated;
        value           uniform 101324.9999999914;
    }
    frontAndBack
    {
        type            empty;
    }
}


// ************************************************************************* //
