/*--------------------------------*- C++ -*----------------------------------*\
| =========                 |                                                 |
| \\      /  F ield         | OpenFOAM: The Open Source CFD Toolbox           |
|  \\    /   O peration     | Version:  v2012                                 |
|   \\  /    A nd           | Website:  www.openfoam.com                      |
|    \\/     M anipulation  |                                                 |
\*---------------------------------------------------------------------------*/
FoamFile
{
    version     2.0;
    format      ascii;
    class       volScalarField;
    location    "0.0035";
    object      rho;
}
// * * * * * * * * * * * * * * * * * * * * * * * * * * * * * * * * * * * * * //

dimensions      [1 -3 0 0 0 0 0];


internalField   nonuniform List<scalar> 
1000
(
1.17653443676188
1.176510828231717
1.176563407848173
1.176605310629789
1.176654516151456
1.176699353055206
1.176737206599625
1.176768772933951
1.176795351551335
1.176813146181866
1.176817847346583
1.176817712724727
1.176814848081416
1.176806708257926
1.176790531471332
1.176765784145526
1.176733419788283
1.176694920112396
1.176651500812834
1.176603984352264
1.17655304618092
1.176499437731159
1.176444054984122
1.176387931905809
1.176332212465533
1.17627805925998
1.176226467382351
1.176178032770959
1.176132822810185
1.1760907307764
1.176053068217859
1.176025256444385
1.176013495805752
1.176012180502347
1.176012808827983
1.176015056103489
1.176021334912265
1.176033570877062
1.176053471862289
1.176081780529968
1.176118115904499
1.176161171846342
1.176209247242932
1.1762607675657
1.17631451877338
1.176369578955911
1.176425137161496
1.17648037059948
1.176534440987055
1.176586632513589
1.176636587714926
1.176684337749485
1.176729505350807
1.176769128718455
1.176795923192178
1.176805415177526
1.176806150371962
1.17680584334225
1.176803767298505
1.176798608355081
1.176788485529214
1.176771791103208
1.176747348392842
1.176714737847541
1.17667441084875
1.176627589099415
1.176575958403216
1.176521275974444
1.176465066134942
1.176408516100306
1.17635251937899
1.176297707438849
1.176244400328389
1.17619261780488
1.176142431607451
1.176095024556924
1.176054738293263
1.176029546617403
1.176021734180887
1.176021225094078
1.176021751226898
1.176023572222049
1.176028302230359
1.176037392243636
1.176052359273773
1.176074410825577
1.176104231465879
1.176141800376842
1.176186359015569
1.176236544428666
1.176290642601423
1.176346889976824
1.176403753965336
1.176460123679012
1.176515365934367
1.176569266631698
1.176621888321583
1.17667319289828
1.176721947140321
1.176763569775528
1.176789761588651
1.176798022266363
1.176798567254691
1.176798314533198
1.176796721504768
1.176792753966647
1.176784950699547
1.176771924343165
1.176752427025451
1.176725569560616
1.176690992864586
1.176648991270502
1.176600524379311
1.176547079642372
1.176490414392409
1.176432259900631
1.176374055533128
1.176316746939643
1.176260708545664
1.176205918004132
1.176152562263042
1.176102352159881
1.176060596186744
1.176035662767807
1.176028420484958
1.176027980876196
1.176028384167633
1.176029836146854
1.176033615375823
1.176040922342731
1.176053064957098
1.176071216146349
1.176096271831438
1.176128688623015
1.176168372505696
1.176214642236074
1.176266283472122
1.176321711679882
1.176379239207839
1.176437376911567
1.176495060575199
1.176551728904241
1.176607211754791
1.176661274384193
1.176712419768713
1.176755766576601
1.176782963654932
1.176791745216483
1.176792436714903
1.176792261359937
1.176791039526785
1.176787922251862
1.176781673180009
1.176771078985115
1.176754962531761
1.176732340670257
1.176702558879275
1.176665424916765
1.176621296860853
1.176571080885375
1.176516124467637
1.176458023631958
1.1763983674845
1.176338460392259
1.17627913191819
1.176220817712015
1.176164125358568
1.17611116137284
1.176067566528577
1.176041715680544
1.176034119995024
1.176033612231779
1.176033916488805
1.176035066513216
1.176038135664605
1.176044152029673
1.176054267549399
1.17606957633345
1.176091013258634
1.17611922546268
1.176154464677926
1.176196512114278
1.176244653600048
1.176297737800455
1.176354338949252
1.176412991305365
1.176472419576789
1.176531693639828
1.176590222157613
1.176647378731418
1.176701362720638
1.176747145574971
1.176776311786978
1.176786234844886
1.176787175678178
1.176787067815697
1.176786140772853
1.176783671619079
1.176778584207901
1.176769806566699
1.176756252313467
1.176736939162852
1.176711091103509
1.176678255247988
1.176638400847083
1.176591965363138
1.176539831202983
1.176483232226877
1.176423582984884
1.176362243092038
1.176300311292327
1.176238637296376
1.176178298783003
1.176121868431042
1.176075414601764
1.176047631452235
1.176039165246624
1.176038504857832
1.176038734711504
1.176039639284593
1.176042146217594
1.17604715540816
1.176055698616033
1.17606878826866
1.176087343022525
1.176112087475823
1.176143462590118
1.176181547425008
1.176226005180818
1.17627608650248
1.176330716363664
1.17638864831327
1.176448641085778
1.176509613353993
1.176570690017905
1.176630906881516
1.176688159185343
1.176737219483677
1.176769384416533
1.176781157185535
1.176782527565986
1.17678247550468
1.176781770267956
1.176779813283115
1.176775644671687
1.176768304781903
1.176756789903201
1.176740150064275
1.176717566504771
1.176688446825296
1.176652514002058
1.176609865792036
1.176560992746041
1.176506747978729
1.176448249361508
1.176386711108553
1.176323277582872
1.176259023294049
1.176195360950328
1.176135214493887
1.176084991092604
1.176053979736535
1.17604382800195
1.176042868710385
1.176043034556543
1.176043731609283
1.176045781190741
1.176049980836396
1.176057260621237
1.17606855250778
1.176084738704259
1.176106572380071
1.176134602853852
1.176169101756071
1.17621000184023
1.176256876198466
1.176308978562415
1.176365335307728
1.176424865906672
1.17648650838449
1.176549271963054
1.176611993389331
1.176672400521545
1.17672523672392
1.176761507680199
1.176776175285671
1.176778308564072
1.17677830912468
1.176777790214353
1.176776247764963
1.176772824951316
1.176766655419485
1.176756812831949
1.176742390764925
1.176722562405505
1.176696659291177
1.176664247502937
1.176625186014947
1.176579662261872
1.176528198090485
1.176471602335947
1.176410861131053
1.17634702371696
1.17628121628043
1.176214994081245
1.176151396476555
1.176096892977749
1.176061394930763
1.176048458030773
1.176046907183248
1.176047013203223
1.176047520266571
1.17604916801171
1.176052671120193
1.176058885278526
1.176068673014434
1.176082872774769
1.176102236244583
1.176127368415585
1.176158662872989
1.176196242821569
1.176239930106568
1.176289256361772
1.176343510544539
1.176401814212906
1.176463214500695
1.176526727830197
1.176591137262195
1.176654186812792
1.176710847787482
1.176752064904299
1.17677085010283
1.176774331619609
1.1767744069868
1.176774053705159
1.176772869281386
1.176770083931105
1.176764906412686
1.176756474823643
1.176743928824303
1.176726454319292
1.176703347044559
1.176674074885365
1.176638330615559
1.176596074819734
1.176547561447293
1.176493321894282
1.176434100063199
1.176370785563569
1.176304444188992
1.176236613978589
1.176170216919531
1.176111429365861
1.176070474259983
1.176053414937313
1.176050737671549
1.176050776071329
1.176051114311863
1.17605241160373
1.176055302784078
1.176060588062657
1.176069074330535
1.176081560683859
1.176098786964529
1.176121384592929
1.176149821956711
1.176184353439763
1.176224986131898
1.17627147217187
1.176323326763394
1.176379873376248
1.176440308676174
1.176503729077843
1.176568963697927
1.17663391624858
1.176694026531819
1.176740576469127
1.176764707098245
1.176770409114123
1.17677066869242
1.176770457989091
1.176769586274625
1.176767362460444
1.176763051759662
1.176755845273884
1.176744923460799
1.176729493095621
1.176708837358275
1.176682365235456
1.176649657233844
1.176610509602323
1.176564968534067
1.176513332950978
1.176456122703957
1.176394049453511
1.176328057629189
1.176259563144847
1.176191209194466
1.176128584780407
1.176081707889818
1.176059153055977
1.176054505728292
1.176054382167423
1.17605459042468
1.176055580674811
1.176057930871347
1.176062392431407
1.176069728169979
1.176080703684825
1.176096043585172
1.176116392427732
1.176142266859572
1.17617401008558
1.176211761967212
1.176255445453136
1.176304764032587
1.176359219587432
1.176418157544632
1.176480789730834
1.176546058743757
1.17661210550667
1.176674968492454
1.176726692971266
1.17675717634999
1.176766359854993
1.176767127679755
1.176766982584054
1.176766380718933
1.176764633525804
1.176761078006839
1.176754944417235
1.176745450849934
1.176731825682254
1.176713349637064
1.176689395206025
1.17665946741622
1.176623245642932
1.176580618048778
1.176531695454885
1.176476805453097
1.176416488965585
1.176351540576587
1.176283195334661
1.176213741784121
1.176148027601518
1.176095366755696
1.176066229166078
1.176058431173598
1.176057924739842
1.176058046751389
1.176058760085478
1.176060620031664
1.176064332690612
1.176070625282679
1.17608023806791
1.176093883122826
1.176112209971796
1.176135765050703
1.176164954080313
1.176200014634393
1.176240996858593
1.176287751334837
1.176339935341203
1.176397040274938
1.176458399110001
1.176523077182262
1.176589466963245
1.176654234355138
1.176710431800466
1.176747572823339
1.176761517242491
1.176763336661136
1.17676327274394
1.176762880541303
1.176761566394793
1.176758729831455
1.17675366426945
1.176745663098495
1.176734042479984
1.176718190037196
1.176697616720939
1.176672017588368
1.176641342473248
1.176605884301747
1.176566415955834
1.176524466571885
1.176482912539434
1.176446843421228
1.176422917716266
1.176413418023971
1.176411798857671
1.176411717010264
1.176411716173394
1.176411716172205
1.176411716172205
1.176411716172205
1.176411716172205
1.176411716172206
1.176411716172207
1.176411716172207
1.176411716172207
1.176411716172207
1.176411716172205
1.176411716172205
1.176411716172205
1.176411716172206
1.176411716172206
1.176411716172206
1.176411716172206
1.176411716172206
1.176411716172207
1.176411716172206
1.176411716172205
1.176411716172206
1.176411716172206
1.176411716172205
1.176411716172205
1.176411716172205
1.176411716172205
1.176411716172205
1.176411716172206
1.176411716172205
1.176411716172205
1.176411716172205
1.176411716172205
1.176411716172204
1.176411716172204
1.176411716172204
1.176411716172203
1.176411716172203
1.176411716172203
1.176411716172203
1.176411716172203
1.176411716172203
1.176411716172204
1.176411716172203
1.176411716172203
1.176411716172203
1.176411716172203
1.176411716172203
1.176411716172203
1.176411716172203
1.176411716172203
1.176411716172203
1.176411716172203
1.176411716172202
1.176411716172201
1.176411716172201
1.176411716172201
1.176411716172201
1.176411716172201
1.1764117161722
1.1764117161722
1.1764117161722
1.1764117161722
1.176411716172201
1.176411716172201
1.176411716172202
1.176411716172202
1.176411716172202
1.176411716172203
1.176411716172203
1.176411716172203
1.176411716172203
1.176411716172202
1.176411716172201
1.176411716172201
1.1764117161722
1.176411716172199
1.176411716172199
1.176411716172198
1.176411716172198
1.176411716172198
1.176411716172199
1.1764117161722
1.176411716172201
1.176411716172202
1.176411716172202
1.176411716172203
1.176411716172203
1.176411716172203
1.176411716172203
1.176411716172202
1.176411716172202
1.176411716172202
1.176411716172202
1.176411716172202
1.176411716172202
1.176411716172202
1.176411716172202
1.176411716172202
1.176411716172201
1.176411716172201
1.176411716172201
1.176411716172202
1.176411716172202
1.176411716172203
1.176411716172204
1.176411716172205
1.176411716172205
1.176411716172205
1.176411716172205
1.176411716172205
1.176411716172205
1.176411716172204
1.176411716172204
1.176411716172204
1.176411716172204
1.176411716172205
1.176411716172204
1.176411716172204
1.176411716172203
1.176411716172204
1.176411716172204
1.176411716172204
1.176411716172204
1.176411716172205
1.176411716172205
1.176411716172205
1.176411716172203
1.176411716172203
1.176411716172203
1.176411716172203
1.176411716172203
1.176411716172204
1.176411716172205
1.176411716172205
1.176411716172206
1.176411716172207
1.176411716172207
1.176411716172207
1.176411716172208
1.176411716172207
1.176411716172207
1.176411716172207
1.176411716172207
1.176411716172206
1.176411716172207
1.176411716172207
1.176411716172208
1.176411716172208
1.176411716172208
1.176411716172207
1.176411716172206
1.176411716172207
1.176411716172207
1.176411716172207
1.176411716172207
1.176411716172207
1.176411716172207
1.176411716172207
1.176411716172206
1.176411716172206
1.176411716172205
1.176411716172205
1.176411716172205
1.176411716172205
1.176411716172205
1.176411716172204
1.176411716172205
1.176411716172205
1.176411716172205
1.176411716172205
1.176411716172206
1.176411716172205
1.176411716172206
1.176411716172206
1.176411716172205
1.176411716172204
1.176411716172204
1.176411716172204
1.176411716172206
1.176411716172207
1.176411716172207
1.176411716172208
1.176411716172207
1.176411716172206
1.176411716172205
1.176411716172205
1.176411716172205
1.176411716172205
1.176411716172205
1.176411716172205
1.176411716172205
1.176411716172205
1.176411716172205
1.176411716172205
1.176411716172205
1.176411716172205
1.176411716172205
1.176411716172204
1.176411716172204
1.176411716172204
1.176411716172202
1.176411716172201
1.1764117161722
1.176411716172199
1.176411716172197
1.176411716172196
1.176411716172194
1.176411716172193
1.176411716172192
1.176411716172191
1.17641171617219
1.17641171617219
1.17641171617219
1.176411716172189
1.17641171617219
1.17641171617219
1.176411716172191
1.176411716172191
1.17641171617219
1.176411716172189
1.176411716172188
1.176411716172187
1.176411716172185
1.176411716172183
1.176411716172182
1.176411716172181
1.176411716172179
1.176411716172177
1.176411716172175
1.176411716172174
1.176411716172173
1.176411716172172
1.176411716172171
1.17641171617217
1.176411716172169
1.176411716172168
1.176411716172167
1.176411716172168
1.176411716172168
1.176411716172168
1.176411716172168
1.176411716172167
1.176411716172167
1.176411716172167
1.176411716172166
1.176411716172165
1.176411716172165
1.176411716172165
1.176411716172165
1.176411716172165
1.176411716172165
1.176411716172165
1.176411716172165
1.176411716172164
1.176411716172164
1.176411716172164
1.176411716172164
1.176411716172164
1.176411716172164
1.176411716172163
1.176411716172162
1.176411716172162
1.176411716172162
1.176411716172162
1.176411716172162
1.176411716172161
1.176411716172161
1.176411716172161
1.176411716172161
1.176411716172161
1.17641171617216
1.17641171617216
1.17641171617216
1.17641171617216
1.17641171617216
1.17641171617216
1.17641171617216
1.176411716172159
1.176411716172159
1.176411716172159
1.176411716172159
1.176411716172159
1.176411716172158
1.176411716172158
1.176411716172158
1.176411716172158
1.176411716172159
1.176411716172159
1.17641171617216
1.176411716172159
1.176411716172159
1.176411716172159
1.176411716172158
1.176411716172158
1.176411716172158
1.176411716172158
1.176411716172158
1.176411716172158
1.176411716172157
1.176411716172156
1.176411716172155
1.176411716172153
1.176411716172152
1.176411716172151
1.17641171617215
1.176411716172149
1.176411716172146
1.176411716172144
1.176411716172142
1.17641171617214
1.176411716172139
1.176411716172137
1.176411716172136
1.176411716172134
1.176411716172132
1.176411716172129
1.176411716172126
1.176411716172124
1.176411716172121
1.176411716172118
1.176411716172117
1.176411716172114
1.176411716172111
1.176411716172109
1.176411716172107
1.176411716172105
1.176411716172104
1.176411716172103
1.176411716172101
1.1764117161721
1.176411716172099
1.176411716172099
1.176411716172097
1.176411716172096
1.176411716172094
1.176411716172093
1.176411716172092
1.176411716172091
1.17641171617209
1.176411716172088
1.176411716172087
1.176411716172085
1.176411716172083
1.17641171617208
1.176411716172078
1.176411716172076
1.176411716172073
1.176411716172071
1.176411716172069
1.176411716172067
1.176411716172065
1.176411716172064
1.176411716172062
1.17641171617206
1.176411716172059
1.176411716172058
1.176411716172058
1.176411716172057
1.176411716172055
1.176411716172055
1.176411716172054
1.176411716172052
1.17641171617205
1.176411716172047
1.176411716172044
1.176411716172042
1.17641171617204
1.176411716172038
1.176411716172035
1.176411716172033
1.176411716172031
1.176411716172029
1.176411716172027
1.176411716172025
1.176411716172023
1.176411716172021
1.176411716172019
1.176411716172016
1.176411716172014
1.176411716172011
1.176411716172008
1.176411716172006
1.176411716172003
1.176411716172002
1.176411716172001
1.176411716172
1.176411716171998
1.176411716171997
1.176411716171996
1.176411716171996
1.176411716171996
1.176411716171996
1.176411716171996
1.176411716171997
1.176411716171998
1.176411716171998
1.176411716171999
1.176411716172001
1.176411716172002
1.176411716172004
1.176411716172005
1.176411716172006
1.176411716172006
1.176411716172007
1.176411716172007
1.176411716172008
1.17641171617201
1.17641171617201
1.176411716172011
1.176411716172012
1.176411716172012
1.176411716172012
1.176411716172013
1.176411716172013
1.176411716172014
1.176411716172015
1.176411716172016
1.176411716172017
1.176411716172018
1.17641171617202
1.17641171617202
1.17641171617202
1.17641171617202
1.17641171617202
1.176411716172021
1.176411716172022
1.176411716172023
1.176411716172024
1.176411716172025
1.176411716172026
1.176411716172026
1.176411716172027
1.176411716172028
1.176411716172029
1.176411716172031
1.176411716172031
1.176411716172032
1.176411716172033
1.176411716172034
1.176411716172035
1.176411716172034
1.176411716172035
1.176411716172034
1.176411716172035
1.176411716172035
1.176411716172035
1.176411716172034
1.176411716172034
1.176411716172034
1.176411716172035
1.176411716172036
1.176411716172037
1.176411716172037
1.176411716172037
1.176411716172037
1.176411716172038
1.176411716172038
1.176411716172039
1.17641171617204
1.176411716172041
1.176411716172041
1.176411716172041
1.176411716172041
1.176411716172041
1.176411716172042
1.176411716172042
1.176411716172041
1.176411716172041
1.176411716172042
1.176411716172042
1.176411716172042
1.176411716172042
1.176411716172042
1.176411716172043
1.176411716172042
1.176411716172043
1.176411716172042
1.176411716172043
1.176411716172043
1.176411716172043
1.176411716172044
1.176411716172043
1.176411716172043
1.176411716172043
1.176411716172043
1.176411716172043
1.176411716172044
1.176411716172044
1.176411716172044
1.176411716172044
1.176411716172044
1.176411716172044
1.176411716172044
1.176411716172044
1.176411716172043
1.176411716172043
1.176411716172043
1.176411716172044
1.176411716172043
1.176411716172044
1.176411716172044
1.176411716172045
1.176411716172046
1.176411716172046
1.176411716172045
1.176411716172045
1.176411716172045
)
;

boundaryField
{
    inlet
    {
        type            calculated;
        value           uniform 1.176427481426743;
    }
    outlet
    {
        type            calculated;
        value           uniform 1.176411716172043;
    }
    frontAndBack
    {
        type            empty;
    }
}


// ************************************************************************* //
