/*--------------------------------*- C++ -*----------------------------------*\
| =========                 |                                                 |
| \\      /  F ield         | OpenFOAM: The Open Source CFD Toolbox           |
|  \\    /   O peration     | Version:  v2012                                 |
|   \\  /    A nd           | Website:  www.openfoam.com                      |
|    \\/     M anipulation  |                                                 |
\*---------------------------------------------------------------------------*/
FoamFile
{
    version     2.0;
    format      ascii;
    class       volScalarField;
    location    "0.0035";
    object      T;
}
// * * * * * * * * * * * * * * * * * * * * * * * * * * * * * * * * * * * * * //

dimensions      [0 0 0 1 0 0 0];


internalField   nonuniform List<scalar> 
1000
(
300.0102805837111
300.0085646118077
300.0149983477514
300.0199015500084
300.0246361726015
300.0288099460516
300.0326582577575
300.0361306207981
300.0391092752967
300.0410820028856
300.0416170861311
300.041604529767
300.0412689238815
300.0403833111653
300.0387064974525
300.0361660516522
300.0328423638583
300.0288917579663
300.0244465558081
300.0195930123335
300.014397986709
300.0089346387371
300.0032912156285
299.9975710948668
299.9918899540995
299.9863661616101
299.9811014644528
299.9761571725336
299.9715408515034
299.9672422867793
299.9633958946774
299.9605555121926
299.9593542559946
299.9592197472337
299.9592841789017
299.9595144073415
299.960156160924
299.9614056413788
299.9634372487831
299.9663268548138
299.9700355780188
299.9744301165842
299.9793368674403
299.9845951413874
299.9900810286218
299.9957004222495
300.0013705329604
300.007007365187
300.012525352787
300.0178514433705
300.0229491675382
300.0278217221231
300.0324306326096
300.0364737093272
300.0392076981213
300.0401762028249
300.0402512147251
300.0402198886916
300.0400080668615
300.0394816807269
300.0384487946615
300.0367453541471
300.0342512761474
300.0309237207989
300.0268087073182
300.0220308563079
300.0167621527834
300.0111818823337
300.0054455805792
299.9996743962668
299.9939595165237
299.9883653946908
299.982924706452
299.9776394807703
299.9725170517348
299.9676781633843
299.9635660040902
299.9609945528163
299.9601970877562
299.960145123276
299.9601988305757
299.9603847122033
299.9608675330086
299.9617954015463
299.963323159776
299.9655740478936
299.9686179164718
299.9724526045728
299.9770006443759
299.9821228778564
299.9876443253522
299.9933849669735
299.9991883737774
300.0049411706096
300.0105787451638
300.0160792587001
300.0214491051978
300.0266844059685
300.0316593321765
300.0359064394096
300.0385789574875
300.0394218387589
300.0394774473262
300.0394516616797
300.0392891168988
300.0388842862855
300.0380880710539
300.0367589043132
300.0347694448663
300.0320289409377
300.0285007203225
300.024214776262
300.0192689837264
300.0138150866778
300.0080323827246
300.002097528103
299.9961574080043
299.9903085357899
299.9845891345942
299.9789969341904
299.9735510258544
299.9684260478556
299.9641638820278
299.9616187982758
299.9608795340604
299.9608346610397
299.9608758281056
299.9610240406918
299.9614098081648
299.9621556692142
299.9633951239071
299.9652478878095
299.9678053924895
299.9711142174395
299.9751647294737
299.9798873518902
299.9851580975055
299.990815205009
299.996686404479
300.0026197035091
300.0085064919492
300.0142894946085
300.0199513576998
300.0254681367244
300.0306870850666
300.0351101428842
300.0378852444094
300.0387812770429
300.0388518349361
300.0388339432573
300.038709273167
300.0383911990526
300.0377535667533
300.0366725688969
300.0350280857207
300.0327197835541
300.0296808516273
300.0258916398216
300.0213886456782
300.0162642939879
300.0106560478313
300.004726746526
299.9986385404608
299.992524538575
299.9864694059782
299.9805176125438
299.9747311817644
299.9693251407239
299.9648752927453
299.9622365707098
299.9614612349716
299.9614094052326
299.9614404632705
299.9615578535323
299.9618711388758
299.9624852604244
299.9635177990896
299.9650804280184
299.9672685599473
299.9701482283575
299.9737450975414
299.9780367976597
299.9829503925804
299.9883683294845
299.9941450556991
300.0001309531469
300.006195856368
300.0122448395526
300.0182175600411
300.0240501037874
300.0295587422613
300.0342303948387
300.0372064320315
300.0382189412278
300.038314940485
300.0383039355438
300.0382093447038
300.0379574019925
300.0374383006131
300.036542657463
300.0351596152693
300.0331889325656
300.0305514075952
300.0272008004892
300.0231339377148
300.0183954171865
300.0130752402189
300.0072992786565
300.0012118554754
299.9949517026177
299.9886309435529
299.9823362978082
299.9761777632409
299.9704179456524
299.9656762948586
299.9628403428847
299.9619761503297
299.9619087414213
299.961932204716
299.9620245402714
299.9622804365101
299.9627917498314
299.963663794464
299.9649999077664
299.9668938501326
299.9694195664583
299.972622041669
299.9765093127467
299.9810469642494
299.9861584707538
299.9917340712781
299.9976465181979
300.0037691059176
300.009991465077
300.0162242844237
300.0223691713411
300.0282113592205
300.0332174693884
300.03649950147
300.0377007510641
300.0378405797631
300.0378352684977
300.0377633096781
300.0375636263549
300.0371382754005
300.0363893351757
300.0352143854882
300.0335164849299
300.0312120739497
300.028240682323
300.0245740119492
300.0202220003344
300.0152346626222
300.0096990125538
300.0037290879763
299.9974487694298
299.9909748219626
299.9844168950427
299.9779191704093
299.9717800989007
299.9666537086154
299.9634882513049
299.9624520097596
299.9623540901362
299.9623710195625
299.9624421721006
299.9626513835845
299.9630800618397
299.9638231422038
299.9649757499262
299.9666279273609
299.9688565393764
299.9717176357802
299.9752389143538
299.9794134766962
299.9841977101563
299.9895154061423
299.995267155939
300.0013426489218
300.0076334791855
300.0140385187581
300.0204390513528
300.0266032210509
300.0319946625374
300.0356956822212
300.0371923144509
300.0374099864096
300.0374100442035
300.0373570970937
300.0371997110585
300.0368504581263
300.0362209368912
300.0352166231535
300.0337450210072
300.0317217524322
300.0290785901117
300.0257712312363
300.0217852519708
300.0171397389923
300.0118879008113
300.0061122336512
299.9999133329518
299.9933982441681
299.9866818777955
299.9799229519167
299.9734316851644
299.9678684579221
299.9642450433911
299.9629245084132
299.962766205428
299.9627770277949
299.9628287867541
299.9629969802991
299.9633545589331
299.9639888651676
299.9649879376759
299.9664373536645
299.9684138292488
299.970979100663
299.9741733181026
299.9780090266216
299.982468006076
299.9875024124278
299.9930396338286
299.9989899781383
300.0052561656567
300.0117377927282
300.0183106534885
300.0247445294714
300.0305263020587
300.0347320450883
300.0366488291477
300.0370040707244
300.0370117612388
300.0369757138745
300.0368548591956
300.0365706504056
300.0360423506002
300.0351820111144
300.0339018398369
300.032118758856
300.0297608911613
300.0267739182967
300.0231264615192
300.0188144625639
300.0138637937656
300.0083286376341
300.0022848645041
299.9958232200881
299.9890524401616
299.9821294724763
299.975352541672
299.9693520887755
299.9651716787259
299.9634303527773
299.9631570705014
299.9631609903004
299.9631955163459
299.9633279370195
299.9636230527092
299.9641625433849
299.9650287693386
299.9663032924179
299.9680616220024
299.9703681949745
299.9732708004316
299.9767953768134
299.9809426149214
299.9856871786245
299.9909795470292
299.996750631835
300.0029184080004
300.0093906270179
300.0160477730539
300.0226759121435
300.0288097166921
300.0335596502824
300.0360218769973
300.0366036912728
300.036630177854
300.0366086784416
300.0365197313211
300.0362928195265
300.0358529667691
300.03511763333
300.0340031910767
300.0324286935706
300.0303209853648
300.0276197415855
300.0242821316682
300.0202873319205
300.0156400169496
300.0103706465122
300.0045322241681
299.9981973299193
299.9914623051707
299.9844716224209
299.9774950367779
299.9711030190417
299.9663181917624
299.964015922981
299.963541547008
299.9635289345503
299.9635501923483
299.9636512715471
299.963891166141
299.9643465757615
299.9650953621835
299.9662156689665
299.9677814523257
299.9698584924431
299.9724995074639
299.975739505359
299.9795927321882
299.9840512884123
299.9890848713466
299.9946426004854
300.0006576294896
300.0070494822854
300.0137102158025
300.020450091911
300.0268648575246
300.0321428460508
300.0352533092156
300.0361903650629
300.036268711397
300.0362539062289
300.0361924935225
300.0360142144568
300.0356514179753
300.0350255598755
300.0340568530883
300.0326665568888
300.0307812673518
300.0283369386723
300.0252830418842
300.0215868310087
300.0172368578167
300.0122443889795
300.006642808022
300.0004872679654
299.9938588120727
299.9868834450918
299.9797947121897
299.9730873984215
299.9677122388588
299.9647380568492
299.9639420785485
299.9638903843853
299.9639028385816
299.9639756515364
299.9641655038386
299.9645444695588
299.9651867775663
299.9661679859043
299.967560772883
299.9694314277427
299.971835711869
299.9748150173953
299.9783935670523
299.9825764468236
299.9873483689191
299.9926743132304
299.998502329344
300.0047643011447
300.0113648052028
300.0181397644599
300.0247489371072
300.0304834063603
300.0342732298926
300.0356960794837
300.0358817273066
300.0358752053045
300.0358351858646
300.0357010934885
300.0354116570514
300.0348947776492
300.0340783520995
300.032892598488
300.0312750234016
300.0291757133281
300.0265635360513
300.0234333523411
300.0198150297511
300.0157874126236
300.0115065242753
300.0072658893908
300.0035849200247
300.0011431839295
300.0001736843027
300.0000084385399
300.000000085528
300.0000000001207
299.9999999999994
299.9999999999995
299.9999999999994
299.9999999999993
299.9999999999992
299.999999999999
299.999999999999
299.9999999999991
299.9999999999994
299.9999999999997
299.9999999999999
299.9999999999999
299.9999999999998
299.9999999999997
299.9999999999996
299.9999999999995
299.9999999999995
299.9999999999994
299.9999999999995
299.9999999999995
299.9999999999996
299.9999999999995
299.9999999999995
299.9999999999994
299.9999999999994
299.9999999999993
299.9999999999993
299.9999999999993
299.9999999999991
299.9999999999993
299.9999999999993
299.9999999999992
299.9999999999991
299.9999999999991
299.9999999999991
299.9999999999991
299.999999999999
299.9999999999991
299.9999999999991
299.9999999999991
299.9999999999991
299.9999999999991
299.9999999999991
299.9999999999991
299.999999999999
299.9999999999991
299.999999999999
299.9999999999989
299.9999999999989
299.9999999999989
299.9999999999989
299.9999999999991
299.9999999999993
299.9999999999995
299.9999999999995
299.9999999999994
299.9999999999995
299.9999999999995
299.9999999999996
299.9999999999996
299.9999999999995
299.9999999999994
299.9999999999993
299.9999999999991
299.9999999999991
299.9999999999992
299.9999999999993
299.9999999999992
299.9999999999992
299.9999999999991
299.9999999999991
299.999999999999
299.999999999999
299.9999999999991
299.9999999999993
299.9999999999994
299.9999999999996
299.9999999999996
299.9999999999996
299.9999999999995
299.9999999999994
299.9999999999994
299.9999999999994
299.9999999999993
299.9999999999991
299.9999999999991
299.9999999999991
299.9999999999991
299.999999999999
299.999999999999
299.999999999999
299.9999999999991
299.9999999999991
299.9999999999989
299.9999999999988
299.9999999999987
299.9999999999986
299.9999999999988
299.999999999999
299.9999999999991
299.9999999999993
299.9999999999994
299.9999999999995
299.9999999999994
299.9999999999994
299.9999999999992
299.9999999999991
299.999999999999
299.999999999999
299.9999999999991
299.9999999999991
299.9999999999992
299.9999999999991
299.9999999999991
299.999999999999
299.9999999999991
299.9999999999991
299.9999999999993
299.9999999999993
299.9999999999993
299.9999999999992
299.999999999999
299.9999999999991
299.9999999999991
299.9999999999992
299.9999999999994
299.9999999999995
299.9999999999997
299.9999999999997
299.9999999999995
299.9999999999993
299.9999999999991
299.9999999999991
299.9999999999991
299.9999999999991
299.9999999999992
299.9999999999993
299.9999999999993
299.9999999999993
299.9999999999993
299.9999999999994
299.9999999999994
299.9999999999994
299.9999999999995
299.9999999999995
299.9999999999994
299.9999999999994
299.9999999999994
299.9999999999993
299.9999999999991
299.9999999999991
299.999999999999
299.9999999999989
299.9999999999988
299.9999999999989
299.9999999999987
299.9999999999989
299.9999999999989
299.9999999999989
299.999999999999
299.999999999999
299.9999999999991
299.9999999999991
299.9999999999991
299.9999999999991
299.999999999999
299.999999999999
299.9999999999992
299.9999999999993
299.9999999999993
299.9999999999993
299.9999999999993
299.9999999999993
299.9999999999994
299.9999999999995
299.9999999999997
299.9999999999997
299.9999999999996
299.9999999999995
299.9999999999994
299.9999999999993
299.9999999999992
299.9999999999993
299.9999999999994
299.9999999999994
299.9999999999994
299.9999999999994
299.9999999999993
299.999999999999
299.9999999999991
299.9999999999991
299.999999999999
299.999999999999
299.999999999999
299.9999999999991
299.9999999999991
299.9999999999993
299.9999999999992
299.9999999999991
299.9999999999991
299.999999999999
299.999999999999
299.9999999999988
299.9999999999987
299.9999999999986
299.9999999999987
299.9999999999985
299.9999999999982
299.9999999999981
299.9999999999979
299.9999999999977
299.9999999999976
299.9999999999976
299.9999999999975
299.9999999999976
299.9999999999975
299.9999999999975
299.9999999999975
299.9999999999974
299.9999999999974
299.9999999999973
299.9999999999973
299.9999999999973
299.9999999999972
299.999999999997
299.9999999999969
299.9999999999967
299.9999999999965
299.9999999999962
299.9999999999959
299.9999999999958
299.9999999999956
299.9999999999955
299.9999999999955
299.9999999999955
299.9999999999956
299.9999999999956
299.9999999999956
299.9999999999955
299.9999999999956
299.9999999999957
299.9999999999956
299.9999999999955
299.9999999999954
299.9999999999954
299.9999999999955
299.9999999999955
299.9999999999955
299.9999999999953
299.9999999999952
299.9999999999951
299.9999999999951
299.9999999999951
299.9999999999951
299.999999999995
299.9999999999948
299.9999999999947
299.9999999999946
299.9999999999947
299.9999999999949
299.9999999999951
299.9999999999952
299.9999999999952
299.9999999999951
299.999999999995
299.999999999995
299.9999999999949
299.9999999999947
299.9999999999946
299.9999999999947
299.9999999999947
299.9999999999948
299.9999999999949
299.9999999999949
299.9999999999948
299.9999999999947
299.9999999999946
299.9999999999945
299.9999999999945
299.9999999999945
299.9999999999945
299.9999999999947
299.9999999999947
299.9999999999948
299.9999999999949
299.999999999995
299.9999999999951
299.9999999999949
299.9999999999948
299.9999999999948
299.9999999999949
299.9999999999948
299.9999999999948
299.9999999999948
299.9999999999948
299.9999999999948
299.9999999999945
299.9999999999943
299.9999999999942
299.9999999999941
299.9999999999941
299.999999999994
299.9999999999939
299.9999999999936
299.9999999999933
299.9999999999932
299.9999999999929
299.9999999999928
299.9999999999925
299.9999999999923
299.9999999999921
299.999999999992
299.9999999999918
299.9999999999915
299.9999999999914
299.9999999999914
299.9999999999912
299.9999999999912
299.9999999999911
299.9999999999907
299.9999999999903
299.9999999999901
299.99999999999
299.9999999999898
299.9999999999895
299.9999999999893
299.999999999989
299.9999999999886
299.9999999999885
299.9999999999884
299.9999999999883
299.9999999999881
299.999999999988
299.9999999999879
299.9999999999878
299.9999999999877
299.9999999999876
299.9999999999875
299.9999999999873
299.9999999999872
299.999999999987
299.9999999999868
299.9999999999866
299.9999999999864
299.9999999999862
299.9999999999861
299.999999999986
299.999999999986
299.9999999999858
299.9999999999857
299.9999999999854
299.9999999999852
299.9999999999848
299.9999999999847
299.9999999999845
299.9999999999844
299.9999999999844
299.9999999999844
299.9999999999841
299.9999999999839
299.9999999999837
299.9999999999834
299.9999999999834
299.9999999999833
299.9999999999833
299.9999999999832
299.999999999983
299.9999999999827
299.9999999999823
299.9999999999819
299.9999999999817
299.9999999999815
299.9999999999811
299.9999999999808
299.9999999999806
299.9999999999805
299.9999999999803
299.9999999999799
299.9999999999796
299.9999999999795
299.9999999999792
299.999999999979
299.9999999999787
299.9999999999784
299.9999999999784
299.9999999999782
299.9999999999781
299.9999999999781
299.9999999999781
299.9999999999779
299.9999999999779
299.999999999978
299.9999999999781
299.9999999999781
299.9999999999782
299.9999999999783
299.9999999999785
299.9999999999786
299.9999999999787
299.9999999999788
299.999999999979
299.999999999979
299.9999999999791
299.9999999999791
299.9999999999791
299.9999999999791
299.9999999999792
299.9999999999795
299.9999999999797
299.9999999999798
299.9999999999797
299.9999999999797
299.9999999999798
299.9999999999799
299.9999999999799
299.99999999998
299.9999999999803
299.9999999999804
299.9999999999804
299.9999999999806
299.9999999999806
299.9999999999807
299.9999999999808
299.9999999999807
299.9999999999807
299.9999999999807
299.9999999999807
299.9999999999808
299.999999999981
299.9999999999811
299.9999999999811
299.9999999999811
299.9999999999812
299.9999999999815
299.9999999999817
299.9999999999817
299.9999999999818
299.9999999999817
299.9999999999818
299.9999999999819
299.9999999999819
299.999999999982
299.999999999982
299.999999999982
299.9999999999819
299.999999999982
299.999999999982
299.9999999999819
299.9999999999819
299.9999999999819
299.9999999999819
299.999999999982
299.9999999999822
299.9999999999823
299.9999999999823
299.9999999999823
299.9999999999822
299.9999999999824
299.9999999999825
299.9999999999827
299.9999999999826
299.9999999999828
299.9999999999827
299.9999999999827
299.9999999999828
299.9999999999828
299.9999999999827
299.9999999999827
299.9999999999827
299.9999999999826
299.9999999999827
299.9999999999828
299.9999999999827
299.9999999999827
299.9999999999827
299.9999999999828
299.9999999999827
299.9999999999828
299.9999999999829
299.9999999999829
299.9999999999828
299.9999999999828
299.9999999999828
299.9999999999828
299.9999999999829
299.9999999999829
299.9999999999831
299.9999999999829
299.999999999983
299.999999999983
299.9999999999829
299.9999999999829
299.9999999999831
299.9999999999832
299.9999999999832
299.9999999999832
299.9999999999832
299.9999999999832
299.9999999999832
299.9999999999832
299.9999999999831
299.9999999999828
299.9999999999826
299.9999999999824
299.9999999999823
299.9999999999823
299.9999999999824
)
;

boundaryField
{
    inlet
    {
        type            fixedValue;
        value           uniform 300;
    }
    outlet
    {
        type            temperatureOutletNSCBC;
        pInf            101325;
        gamma           1.4;
        etaAc           1;
        fieldInf        1;
        lInf            2.25;
        value           uniform 299.9999999999829;
    }
    frontAndBack
    {
        type            empty;
    }
}


// ************************************************************************* //
