/*--------------------------------*- C++ -*----------------------------------*\
| =========                 |                                                 |
| \\      /  F ield         | OpenFOAM: The Open Source CFD Toolbox           |
|  \\    /   O peration     | Version:  v2012                                 |
|   \\  /    A nd           | Website:  www.openfoam.com                      |
|    \\/     M anipulation  |                                                 |
\*---------------------------------------------------------------------------*/
FoamFile
{
    version     2.0;
    format      ascii;
    class       volVectorField;
    location    "0.0035";
    object      U;
}
// * * * * * * * * * * * * * * * * * * * * * * * * * * * * * * * * * * * * * //

dimensions      [0 1 -1 0 0 0 0];


internalField   nonuniform List<vector> 
1000
(
(0.002904430970899818 0 0)
(0.03440961685215838 0 0)
(0.04253961142710334 0 0)
(0.05763099213897692 0 0)
(0.07149864736856737 0 0)
(0.0844881230995259 0 0)
(0.09560862594807759 0 0)
(0.1050990870048449 0 0)
(0.1131892202871352 0 0)
(0.118618401607045 0 0)
(0.1200603022312053 0 0)
(0.1199120491607543 0 0)
(0.1191218503868634 0 0)
(0.1166424595835841 0 0)
(0.1118529814498821 0 0)
(0.1045377445976338 0 0)
(0.09496835204122894 0 0)
(0.083584662838969 0 0)
(0.0707573951245168 0 0)
(0.05673293472565333 0 0)
(0.04170158101536797 0 0)
(0.02587760513105247 0 0)
(0.009532733881114849 0 0)
(-0.007020046447096903 0 0)
(-0.02345623759710581 0 0)
(-0.03945088754574875 0 0)
(-0.05469712974643513 0 0)
(-0.06898735951067698 0 0)
(-0.082309822150382 0 0)
(-0.09474604436439414 0 0)
(-0.1059110636470695 0 0)
(-0.1141283400141868 0 0)
(-0.1175506500439561 0 0)
(-0.1179112789600295 0 0)
(-0.1178191511865039 0 0)
(-0.117093388907414 0 0)
(-0.1152578605458916 0 0)
(-0.1116413181545668 0 0)
(-0.1057638513425192 0 0)
(-0.09740474420499341 0 0)
(-0.08667863173794318 0 0)
(-0.07396717181705571 0 0)
(-0.05977017899593533 0 0)
(-0.04455789295079702 0 0)
(-0.02869372067421224 0 0)
(-0.01244315767746424 0 0)
(0.003963418401568813 0 0)
(0.02027522718017891 0 0)
(0.03622909996028233 0 0)
(0.05162131356334123 0 0)
(0.06637227644970202 0 0)
(0.08048759336484736 0 0)
(0.09381558212654405 0 0)
(0.1054768043940346 0 0)
(0.1133782491919133 0 0)
(0.1162175963797215 0 0)
(0.1164584338794355 0 0)
(0.1162984726199145 0 0)
(0.1157294544694638 0 0)
(0.1141936392993128 0 0)
(0.1112082185189094 0 0)
(0.1062820954668616 0 0)
(0.09906890159803652 0 0)
(0.08944268349684865 0 0)
(0.07753961171738612 0 0)
(0.06372261938007782 0 0)
(0.04848514080876973 0 0)
(0.0323411613065978 0 0)
(0.01574534282742849 0 0)
(-0.0009437895792264368 0 0)
(-0.01746746587978061 0 0)
(-0.03365306387647476 0 0)
(-0.0494025675895237 0 0)
(-0.06468775564325221 0 0)
(-0.07948596974944917 0 0)
(-0.09348161108772374 0 0)
(-0.1054035098749765 0 0)
(-0.1128538270789612 0 0)
(-0.1151307501388723 0 0)
(-0.1152532924958991 0 0)
(-0.1151566304974421 0 0)
(-0.1145856108299145 0 0)
(-0.1131986541195404 0 0)
(-0.1105132225028673 0 0)
(-0.1060931659615221 0 0)
(-0.09958159744353381 0 0)
(-0.09077805577416134 0 0)
(-0.07968624645239976 0 0)
(-0.06652835894910007 0 0)
(-0.05171036695155962 0 0)
(-0.03574186015915588 0 0)
(-0.01913928380214381 0 0)
(-0.002349072809509532 0 0)
(0.01429592309190741 0 0)
(0.03059830223879793 0 0)
(0.04649941430478241 0 0)
(0.06203528383512606 0 0)
(0.07719273439505009 0 0)
(0.09158054471589167 0 0)
(0.1038428602559359 0 0)
(0.111567693433571 0 0)
(0.1140310446441585 0 0)
(0.1142083050908234 0 0)
(0.1140880429091063 0 0)
(0.1136461226051407 0 0)
(0.1124667206304897 0 0)
(0.1101650158162368 0 0)
(0.1063211791277268 0 0)
(0.1005674381418279 0 0)
(0.09263971965646416 0 0)
(0.08243408315315487 0 0)
(0.07003920058250288 0 0)
(0.05573528452282992 0 0)
(0.03995784742842347 0 0)
(0.02322898093723948 0 0)
(0.006065421920976108 0 0)
(-0.01111176195759701 0 0)
(-0.02803318385249211 0 0)
(-0.04458532789733557 0 0)
(-0.06075878450165385 0 0)
(-0.07649823009799425 0 0)
(-0.09132274210232683 0 0)
(-0.1036709234623529 0 0)
(-0.1110404787823488 0 0)
(-0.1131573462261747 0 0)
(-0.1132688788187911 0 0)
(-0.1131907858119323 0 0)
(-0.1127383291082744 0 0)
(-0.1116294573628799 0 0)
(-0.1094708883355673 0 0)
(-0.1058849168289774 0 0)
(-0.1005251441229022 0 0)
(-0.09312824867929979 0 0)
(-0.0835573354801669 0 0)
(-0.07183890184695857 0 0)
(-0.05817721752979206 0 0)
(-0.04293345533614342 0 0)
(-0.02657163357075457 0 0)
(-0.009585595268925886 0 0)
(0.007580195287694711 0 0)
(0.02460360732928747 0 0)
(0.04132408179261978 0 0)
(0.05770509352115608 0 0)
(0.07367340396208917 0 0)
(0.08876531064220095 0 0)
(0.1015409087971229 0 0)
(0.109566254901507 0 0)
(0.1121782024477767 0 0)
(0.1123938617667428 0 0)
(0.1123044499110544 0 0)
(0.111968452694937 0 0)
(0.1110408236415838 0 0)
(0.1091977512901426 0 0)
(0.1060715224537006 0 0)
(0.1013154805919905 0 0)
(0.09463813277701588 0 0)
(0.08584790812339232 0 0)
(0.07488940521462155 0 0)
(0.06186587690149416 0 0)
(0.04704215646108204 0 0)
(0.03081876755375792 0 0)
(0.01367089644783618 0 0)
(-0.003935958665001438 0 0)
(-0.02162398155409543 0 0)
(-0.03914487448485978 0 0)
(-0.05635805473267039 0 0)
(-0.07308598159157825 0 0)
(-0.08872520898931271 0 0)
(-0.1016120040598769 0 0)
(-0.1092481466849192 0 0)
(-0.1114740457310077 0 0)
(-0.1116123684877694 0 0)
(-0.1115537958760903 0 0)
(-0.1111949864958185 0 0)
(-0.1102946538489873 0 0)
(-0.108517212888668 0 0)
(-0.1055299437702701 0 0)
(-0.1010096261699385 0 0)
(-0.09468095943620471 0 0)
(-0.08635115693712098 0 0)
(-0.07594526288611587 0 0)
(-0.06353054472608587 0 0)
(-0.04931944537098984 0 0)
(-0.03364850866867719 0 0)
(-0.0169360058656726 0 0)
(0.0003805481248412779 0 0)
(0.01791930097285581 0 0)
(0.03541146614902731 0 0)
(0.05269225501154173 0 0)
(0.06957060146393812 0 0)
(0.08549849570124352 0 0)
(0.09899720203613925 0 0)
(0.1076077786110711 0 0)
(0.1105523960565044 0 0)
(0.1108361767699873 0 0)
(0.1107738034321898 0 0)
(0.1105222604366092 0 0)
(0.1097862957026132 0 0)
(0.1082861063430763 0 0)
(0.1056959111215042 0 0)
(0.101695934862923 0 0)
(0.09599521606310309 0 0)
(0.08836619644913384 0 0)
(0.07867616741007513 0 0)
(0.06691381951744184 0 0)
(0.05320631090677228 0 0)
(0.03781676396073452 0 0)
(0.02111237055904688 0 0)
(0.003506929281226374 0 0)
(-0.01460384091609992 0 0)
(-0.03289152727701666 0 0)
(-0.051095819482704 0 0)
(-0.06890224096516889 0 0)
(-0.08556633651690572 0 0)
(-0.09929449260407856 0 0)
(-0.1074981512267808 0 0)
(-0.109983898097826 0 0)
(-0.110171352249469 0 0)
(-0.1101295770864766 0 0)
(-0.1098451429001382 0 0)
(-0.1091105444885536 0 0)
(-0.1076304217756406 0 0)
(-0.1051074581701076 0 0)
(-0.1012425071064654 0 0)
(-0.09576476347759899 0 0)
(-0.08845862748810321 0 0)
(-0.07919367310860305 0 0)
(-0.06794912569590883 0 0)
(-0.05482533207574276 0 0)
(-0.04004016633847651 0 0)
(-0.02390942912488906 0 0)
(-0.006806178106304969 0 0)
(0.01089936088957429 0 0)
(0.02889453915380965 0 0)
(0.04692834369160661 0 0)
(0.06470800355133416 0 0)
(0.08159908912331271 0 0)
(0.0960680268703035 0 0)
(0.105566326967497 0 0)
(0.1090540323142191 0 0)
(0.1094620754721012 0 0)
(0.1094185346177234 0 0)
(0.1092327148516914 0 0)
(0.1086473413327718 0 0)
(0.1074186015491776 0 0)
(0.1052525893267337 0 0)
(0.1018543785766769 0 0)
(0.09694276862586675 0 0)
(0.09027742048327163 0 0)
(0.08168406822631953 0 0)
(0.07107895884427558 0 0)
(0.05848962988865464 0 0)
(0.04406335663362321 0 0)
(0.0280539474772255 0 0)
(0.01078760773042832 0 0)
(-0.007381401323245091 0 0)
(-0.02611079654217115 0 0)
(-0.0450761710938995 0 0)
(-0.06386559554316917 0 0)
(-0.0816280013984301 0 0)
(-0.09646673973437923 0 0)
(-0.1056209706207424 0 0)
(-0.1086067845723376 0 0)
(-0.1088854097187635 0 0)
(-0.1088593551807936 0 0)
(-0.1086369044946891 0 0)
(-0.1080373646708766 0 0)
(-0.1067961526342888 0 0)
(-0.1046463908111244 0 0)
(-0.1013123597759397 0 0)
(-0.0965337614810248 0 0)
(-0.09008689281848177 0 0)
(-0.08180972732197832 0 0)
(-0.07162413235988971 0 0)
(-0.05955016008532336 0 0)
(-0.04571108853891644 0 0)
(-0.03032685832031915 0 0)
(-0.01368934543083357 0 0)
(0.003880658190645597 0 0)
(0.02207569148791281 0 0)
(0.04060723552872041 0 0)
(0.05912352873493639 0 0)
(0.07694585698942895 0 0)
(0.092533500968522 0 0)
(0.1032447396799615 0 0)
(0.1075826147818223 0 0)
(0.108213710798648 0 0)
(0.108190376631398 0 0)
(0.1080578767706395 0 0)
(0.1075948700291996 0 0)
(0.1065864005378291 0 0)
(0.1047657314933577 0 0)
(0.1018609355092496 0 0)
(0.09760391781356338 0 0)
(0.09175193859739725 0 0)
(0.08410788054060638 0 0)
(0.07454173069873031 0 0)
(0.06301121456447066 0 0)
(0.04957421884101571 0 0)
(0.03438577934201546 0 0)
(0.01768054027693133 0 0)
(-0.0002531099857840187 0 0)
(-0.01910011584973799 0 0)
(-0.03852298830747883 0 0)
(-0.05806977691338725 0 0)
(-0.07685261614215379 0 0)
(-0.09295267520811969 0 0)
(-0.1034288388470903 0 0)
(-0.1072390090748755 0 0)
(-0.107694767524478 0 0)
(-0.1076853567874845 0 0)
(-0.1075176946069592 0 0)
(-0.1070376540024287 0 0)
(-0.1060017781569439 0 0)
(-0.1041668571800538 0 0)
(-0.101277025834024 0 0)
(-0.0970847443159083 0 0)
(-0.09136710415229338 0 0)
(-0.08394596843582479 0 0)
(-0.07470664779940767 0 0)
(-0.06361237539524721 0 0)
(-0.05071369182341091 0 0)
(-0.03614948434432323 0 0)
(-0.0201332287247262 0 0)
(-0.002924354073901412 0 0)
(0.0152009035476694 0 0)
(0.03395317822260627 0 0)
(0.05296552465367826 0 0)
(0.07156867676996122 0 0)
(0.08828895631703229 0 0)
(0.1004603618935663 0 0)
(0.1060112325423744 0 0)
(0.1070340640869881 0 0)
(0.1070413360486239 0 0)
(0.1069551299371427 0 0)
(0.1065974973095425 0 0)
(0.1057774299910284 0 0)
(0.1042494261505374 0 0)
(0.1017609420936144 0 0)
(0.09805770652682336 0 0)
(0.09290062214994826 0 0)
(0.08608160038663895 0 0)
(0.0774418402560577 0 0)
(0.06689068741289143 0 0)
(0.05441889938027124 0 0)
(0.0401013953113611 0 0)
(0.02409102207244909 0 0)
(0.006606319361885509 0 0)
(-0.01208458995435506 0 0)
(-0.03166468780693756 0 0)
(-0.05168816205446778 0 0)
(-0.07129799508972023 0 0)
(-0.08865970046179061 0 0)
(-0.1007456031096444 0 0)
(-0.1057755227858013 0 0)
(-0.106565171294679 0 0)
(-0.1065754142690363 0 0)
(-0.1064557676840432 0 0)
(-0.1060802998169535 0 0)
(-0.1052247340135228 0 0)
(-0.1036643373397103 0 0)
(-0.1011587510119644 0 0)
(-0.09747212177885387 0 0)
(-0.09238555225377267 0 0)
(-0.08571314699737784 0 0)
(-0.07731730752452837 0 0)
(-0.06712236591593183 0 0)
(-0.05512537751929866 0 0)
(-0.04140053916052726 0 0)
(-0.02609271917579261 0 0)
(-0.009400749681079946 0 0)
(0.008440640420496156 0 0)
(0.02716350503520354 0 0)
(0.04641803074887785 0 0)
(0.06558616386055616 0 0)
(0.08332805252326242 0 0)
(0.09707126389571924 0 0)
(0.104193984201765 0 0)
(0.1058712942624607 0 0)
(0.1059447457628933 0 0)
(0.1058917627849844 0 0)
(0.1056287844365919 0 0)
(0.1049741292649513 0 0)
(0.1037019052605782 0 0)
(0.1015748902085144 0 0)
(0.09835114969469912 0 0)
(0.09379749146722118 0 0)
(0.08770179766797828 0 0)
(0.07988827048555303 0 0)
(0.07023367582405562 0 0)
(0.05867976913315633 0 0)
(0.04523925316068587 0 0)
(0.02999700781782308 0 0)
(0.01310696836081859 0 0)
(-0.00521599017260001 0 0)
(-0.02469328531513346 0 0)
(-0.0449146829275234 0 0)
(-0.06510145568236791 0 0)
(-0.08359270049127354 0 0)
(-0.09742591728712116 0 0)
(-0.1040805275114819 0 0)
(-0.1054601032596923 0 0)
(-0.1055077334336833 0 0)
(-0.105428686673569 0 0)
(-0.1051451838635453 0 0)
(-0.1044487234817097 0 0)
(-0.1031316678235028 0 0)
(-0.1009659693540736 0 0)
(-0.0977254069984508 0 0)
(-0.09319552705186387 0 0)
(-0.08718712649711459 0 0)
(-0.07954841488995155 0 0)
(-0.07017662143593165 0 0)
(-0.05902937614359619 0 0)
(-0.04613173222057262 0 0)
(-0.03157351054994265 0 0)
(-0.01549897085321273 0 0)
(0.001902293681248638 0 0)
(0.0203936929404046 0 0)
(0.03965633649682167 0 0)
(0.05914566940412009 0 0)
(0.07770331001294359 0 0)
(0.09297781873942855 0 0)
(0.1019725508684974 0 0)
(0.1046726718680242 0 0)
(0.1048951951325076 0 0)
(0.1048717902009408 0 0)
(0.1046804166515423 0 0)
(0.1041691530653886 0 0)
(0.1031190407915176 0 0)
(0.1013088039444805 0 0)
(0.09850681378539514 0 0)
(0.09448586411672194 0 0)
(0.08903311419454119 0 0)
(0.08196277680842165 0 0)
(0.07312939108851645 0 0)
(0.06243908104796923 0 0)
(0.04985771634995433 0 0)
(0.03541638507333947 0 0)
(0.01921288141800738 0 0)
(0.001409152834613237 0 0)
(-0.01776193107954381 0 0)
(-0.0379400324177687 0 0)
(-0.05844822239265166 0 0)
(-0.07784889961961684 0 0)
(-0.09339242952238963 0 0)
(-0.1019955534526482 0 0)
(-0.1043038675519395 0 0)
(-0.1044565942815171 0 0)
(-0.1044100478840387 0 0)
(-0.1042062564355967 0 0)
(-0.1036548642600079 0 0)
(-0.1025590286299836 0 0)
(-0.1007012520544203 0 0)
(-0.09786289604131439 0 0)
(-0.09383358311144378 0 0)
(-0.08842243910678194 0 0)
(-0.08146829289211878 0 0)
(-0.0728501616533595 0 0)
(-0.06249771887738059 0 0)
(-0.05039817184751724 0 0)
(-0.03659646537384022 0 0)
(-0.02119116502773237 0 0)
(-0.004331053240724023 0 0)
(0.01378283971572651 0 0)
(0.03287132136415428 0 0)
(0.05246516492919288 0 0)
(0.07158609654113376 0 0)
(0.0881769520006795 0 0)
(0.09913445099041823 0 0)
(0.1032436512909238 0 0)
(0.1037794133134205 0 0)
(0.1037757087281199 0 0)
(0.1036472000984055 0 0)
(0.1032638831666634 0 0)
(0.1024257084591181 0 0)
(0.1009308901728162 0 0)
(0.09856947457818721 0 0)
(0.09513985593536656 0 0)
(0.09046124140173681 0 0)
(0.08438925627115419 0 0)
(0.07683383871390187 0 0)
(0.06778010412112342 0 0)
(0.05731441763194283 0 0)
(0.04566480484023627 0 0)
(0.03328253162967595 0 0)
(0.02101659728238277 0 0)
(0.01036941102181626 0 0)
(0.003306672561471621 0 0)
(0.0005023843263437571 0 0)
(2.440863289004527e-05 0 0)
(2.473937028260007e-07 0 0)
(3.510200458458654e-10 0 0)
(7.832743442381139e-14 0 0)
(1.044365792317565e-13 0 0)
(1.479518205783484e-13 0 0)
(6.962438615449423e-14 0 0)
(1.740609653859871e-14 0 0)
(1.131396275010515e-13 0 0)
(1.392487723089958e-13 0 0)
(1.13139627501048e-13 0 0)
(1.827640136555625e-13 0 0)
(2.784975446179879e-13 0 0)
(2.175762067328388e-13 0 0)
(2.610914480794364e-13 0 0)
(2.784975446180536e-13 0 0)
(2.088731584635318e-13 0 0)
(3.046066894260054e-13 0 0)
(3.133097376953247e-13 0 0)
(3.481219307725904e-13 0 0)
(3.307158342339428e-13 0 0)
(2.95903641156719e-13 0 0)
(2.088731584635597e-13 0 0)
(6.092133788517793e-14 0 0)
(5.221828961585151e-14 0 0)
(4.35152413465414e-14 0 0)
(-1.740609653864559e-14 0 0)
(-5.221828961592952e-14 0 0)
(-1.74060965386325e-13 0 0)
(-1.305457240397506e-13 0 0)
(8.70304826927863e-15 0 0)
(-2.536553446907833e-26 0 0)
(8.70304826931451e-14 0 0)
(2.610914480795422e-14 0 0)
(4.351524134657233e-14 0 0)
(2.001701101942557e-13 0 0)
(2.088731584635729e-13 0 0)
(2.523883998101751e-13 0 0)
(2.523883998101698e-13 0 0)
(1.39248772309044e-13 0 0)
(8.70304826931686e-14 0 0)
(6.962438615452493e-14 0 0)
(5.22182896158981e-14 0 0)
(5.221828961590311e-14 0 0)
(-1.740609653861004e-14 0 0)
(-2.001701101942112e-13 0 0)
(-3.30715834233928e-13 0 0)
(-4.873707030815451e-13 0 0)
(-5.744011857747317e-13 0 0)
(-5.134798478895497e-13 0 0)
(-5.482920409668247e-13 0 0)
(-6.52728620198562e-13 0 0)
(-7.310560546223261e-13 0 0)
(-7.310560546224181e-13 0 0)
(-6.440255719292724e-13 0 0)
(-6.527286201985319e-13 0 0)
(-7.397591028917246e-13 0 0)
(-6.962438615451888e-13 0 0)
(-5.047767996202526e-13 0 0)
(-4.525585100043865e-13 0 0)
(-3.829341238498268e-13 0 0)
(-3.22012785964662e-13 0 0)
(-3.65528027311184e-13 0 0)
(-2.610914480794236e-13 0 0)
(-1.827640136555968e-13 0 0)
(-2.349823032715079e-13 0 0)
(-1.914670619249016e-13 0 0)
(-2.610914480794473e-13 0 0)
(-2.872005928873594e-13 0 0)
(-4.26449365196435e-13 0 0)
(-5.569950892361487e-13 0 0)
(-6.266194753906574e-13 0 0)
(-6.266194753907796e-13 0 0)
(-6.005103305827143e-13 0 0)
(-5.047767996202891e-13 0 0)
(-4.612615582736813e-13 0 0)
(-3.481219307725515e-13 0 0)
(-3.307158342339586e-13 0 0)
(-3.829341238498263e-13 0 0)
(-3.568249790419124e-13 0 0)
(-4.26449365196421e-13 0 0)
(-5.308859444281751e-13 0 0)
(-6.701347167372275e-13 0 0)
(-5.221828961589167e-13 0 0)
(-6.179164271213008e-13 0 0)
(-6.353225236600085e-13 0 0)
(-6.614316684679251e-13 0 0)
(-6.353225236600192e-13 0 0)
(-5.221828961588988e-13 0 0)
(-5.918072823133318e-13 0 0)
(-5.744011857747974e-13 0 0)
(-5.744011857747826e-13 0 0)
(-6.353225236598998e-13 0 0)
(-7.658682476996406e-13 0 0)
(-8.616017786621235e-13 0 0)
(-8.703048269314147e-13 0 0)
(-8.616017786621457e-13 0 0)
(-8.441956821234227e-13 0 0)
(-7.658682476996588e-13 0 0)
(-6.701347167371863e-13 0 0)
(-6.179164271212379e-13 0 0)
(-4.78667654812245e-13 0 0)
(-4.264493651963673e-13 0 0)
(-4.786676548122222e-13 0 0)
(-3.046066894259412e-13 0 0)
(-1.740609653861959e-13 0 0)
(8.703048269382789e-15 0 0)
(4.351524134662823e-14 0 0)
(1.044365792318142e-13 0 0)
(2.088731584635994e-13 0 0)
(3.91637172119215e-13 0 0)
(5.221828961588816e-13 0 0)
(4.438554617350631e-13 0 0)
(3.568249790418716e-13 0 0)
(1.914670619249316e-13 0 0)
(6.09213378852059e-14 0 0)
(-3.481219307726108e-14 0 0)
(4.351524134659218e-14 0 0)
(1.392487723090614e-13 0 0)
(1.392487723090462e-13 0 0)
(1.740609653862906e-13 0 0)
(3.481219307724705e-14 0 0)
(4.351524134656787e-14 0 0)
(-8.703048269307688e-15 0 0)
(-8.703048269315432e-14 0 0)
(-1.305457240397371e-13 0 0)
(-1.740609653862999e-13 0 0)
(-2.610914480794505e-13 0 0)
(-2.349823032714747e-13 0 0)
(-3.046066894259678e-13 0 0)
(-4.612615582736687e-13 0 0)
(-5.482920409667857e-13 0 0)
(-6.61431668467838e-13 0 0)
(-5.482920409668128e-13 0 0)
(-6.962438615451795e-13 0 0)
(-6.440255719292964e-13 0 0)
(-6.353225236599437e-13 0 0)
(-6.875408132757702e-13 0 0)
(-6.87540813275827e-13 0 0)
(-5.56995089236139e-13 0 0)
(-6.266194753905794e-13 0 0)
(-5.918072823133523e-13 0 0)
(-4.960737513509378e-13 0 0)
(-4.96073751350924e-13 0 0)
(-4.61261558273691e-13 0 0)
(-5.047767996202171e-13 0 0)
(-4.438554617350296e-13 0 0)
(-3.655280273112003e-13 0 0)
(-4.525585100043028e-13 0 0)
(-3.829341238497944e-13 0 0)
(-4.177463169270814e-13 0 0)
(-4.177463169270612e-13 0 0)
(-5.744011857747599e-13 0 0)
(-6.527286201985456e-13 0 0)
(-6.266194753906376e-13 0 0)
(-6.788377650065283e-13 0 0)
(-5.918072823132859e-13 0 0)
(-6.005103305826802e-13 0 0)
(-5.39588992697464e-13 0 0)
(-5.482920409667972e-13 0 0)
(-5.308859444281831e-13 0 0)
(-4.786676548122245e-13 0 0)
(-3.5682497904188e-13 0 0)
(-4.17746316927094e-13 0 0)
(-5.134798478895371e-13 0 0)
(-5.744011857747619e-13 0 0)
(-7.223530063530744e-13 0 0)
(-7.571651994303682e-13 0 0)
(-6.266194753906096e-13 0 0)
(-5.482920409667891e-13 0 0)
(-4.438554617350288e-13 0 0)
(-4.351524134656888e-13 0 0)
(-5.308859444281062e-13 0 0)
(-6.266194753906332e-13 0 0)
(-5.308859444281276e-13 0 0)
(-4.177463169270568e-13 0 0)
(-2.175762067328134e-13 0 0)
(-8.703048269293577e-15 0 0)
(1.740609653865425e-14 0 0)
(1.740609653868015e-14 0 0)
(-2.61091448078832e-14 0 0)
(8.703048269321701e-14 0 0)
(-6.962438615446496e-14 0 0)
(-1.740609653857231e-14 0 0)
(-6.092133788514903e-14 0 0)
(-4.351524134653601e-14 0 0)
(8.703048269332692e-15 0 0)
(2.610914480796117e-14 0 0)
(3.481219307726877e-14 0 0)
(6.962438615451859e-14 0 0)
(1.305457240397088e-13 0 0)
(1.653579171169751e-13 0 0)
(2.697944963487803e-13 0 0)
(3.394188825032557e-13 0 0)
(2.17576206732883e-13 0 0)
(2.001701101942294e-13 0 0)
(8.70304826931397e-14 0 0)
(1.479518205783749e-13 0 0)
(1.131396275010878e-13 0 0)
(1.30545724039743e-13 0 0)
(1.566548688477041e-13 0 0)
(1.914670619249553e-13 0 0)
(3.307158342339967e-13 0 0)
(5.918072823133935e-13 0 0)
(9.834444544325594e-13 0 0)
(1.279348095589207e-12 0 0)
(1.662282219438948e-12 0 0)
(2.088731584635505e-12 0 0)
(2.558696191178341e-12 0 0)
(2.91552117022013e-12 0 0)
(3.368079680224753e-12 0 0)
(3.620468080034764e-12 0 0)
(3.794529045421113e-12 0 0)
(3.968590010807428e-12 0 0)
(4.212275362347755e-12 0 0)
(4.525585100043763e-12 0 0)
(4.760567403314937e-12 0 0)
(4.986846658316872e-12 0 0)
(5.039064947933146e-12 0 0)
(5.169610671972848e-12 0 0)
(5.152204575434228e-12 0 0)
(5.213125913319451e-12 0 0)
(5.378483830436048e-12 0 0)
(5.430702120052253e-12 0 0)
(5.770121002555745e-12 0 0)
(6.109539885058215e-12 0 0)
(6.309709995253012e-12 0 0)
(6.527286201985993e-12 0 0)
(6.901517277566528e-12 0 0)
(7.502027608149273e-12 0 0)
(8.11124098700046e-12 0 0)
(8.67693912450705e-12 0 0)
(9.190418972396145e-12 0 0)
(9.686492723746664e-12 0 0)
(9.860553689133642e-12 0 0)
(1.023478476471438e-11 0 0)
(1.067864022644926e-11 0 0)
(1.091362252972046e-11 0 0)
(1.108768349510656e-11 0 0)
(1.112249568818384e-11 0 0)
(1.119212007433915e-11 0 0)
(1.120952617087628e-11 0 0)
(1.147932066722643e-11 0 0)
(1.148802371549534e-11 0 0)
(1.147061761895672e-11 0 0)
(1.132266579837875e-11 0 0)
(1.136618103972392e-11 0 0)
(1.12269322674164e-11 0 0)
(1.134877494318621e-11 0 0)
(1.154024200511072e-11 0 0)
(1.165338163261233e-11 0 0)
(1.181003650145987e-11 0 0)
(1.188836393588432e-11 0 0)
(1.190577003242286e-11 0 0)
(1.197539441857632e-11 0 0)
(1.214945538396286e-11 0 0)
(1.211464319088673e-11 0 0)
(1.213204928742343e-11 0 0)
(1.224518891492568e-11 0 0)
(1.210594014261716e-11 0 0)
(1.208853404607852e-11 0 0)
(1.21755645287714e-11 0 0)
(1.244535902511874e-11 0 0)
(1.251498341127501e-11 0 0)
(1.265423218358314e-11 0 0)
(1.280218400416122e-11 0 0)
(1.292402667993284e-11 0 0)
(1.285440229377798e-11 0 0)
(1.273255961800736e-11 0 0)
(1.2854402293778e-11 0 0)
(1.276737181108426e-11 0 0)
(1.274996571454531e-11 0 0)
(1.261071694223805e-11 0 0)
(1.256720170088911e-11 0 0)
(1.253238950781337e-11 0 0)
(1.26281230387756e-11 0 0)
(1.249757731473584e-11 0 0)
(1.254109255608299e-11 0 0)
(1.246276512165719e-11 0 0)
(1.237573463896684e-11 0 0)
(1.242795292858048e-11 0 0)
(1.234092244588816e-11 0 0)
(1.221907977011777e-11 0 0)
(1.221037672184847e-11 0 0)
(1.210594014261726e-11 0 0)
(1.229740720454168e-11 0 0)
(1.234092244588794e-11 0 0)
(1.253238950781259e-11 0 0)
(1.266293523185402e-11 0 0)
(1.28021840041604e-11 0 0)
(1.290662058339369e-11 0 0)
(1.306327545224193e-11 0 0)
(1.31503059349351e-11 0 0)
(1.306327545224137e-11 0 0)
(1.330696080378039e-11 0 0)
(1.348102176917e-11 0 0)
(1.377692541032453e-11 0 0)
(1.405542295494287e-11 0 0)
(1.440354488571583e-11 0 0)
(1.45166845132175e-11 0 0)
(1.472555767168046e-11 0 0)
(1.503016436110671e-11 0 0)
(1.523033447130051e-11 0 0)
(1.568289298130407e-11 0 0)
(1.603971796034844e-11 0 0)
(1.650968256688835e-11 0 0)
(1.693613193208718e-11 0 0)
(1.748442397305368e-11 0 0)
(1.818066783459839e-11 0 0)
(1.885080255133657e-11 0 0)
(1.97472165230756e-11 0 0)
(2.014755674346418e-11 0 0)
(2.078287926712091e-11 0 0)
(2.128765606674488e-11 0 0)
(2.18359481077109e-11 0 0)
(2.221888223156066e-11 0 0)
(2.274976817598997e-11 0 0)
(2.341119984445792e-11 0 0)
(2.388116445100054e-11 0 0)
(2.457740831254093e-11 0 0)
(2.527365217409158e-11 0 0)
(2.61004417596755e-11 0 0)
(2.677057647641784e-11 0 0)
(2.742330509661136e-11 0 0)
(2.798900323411887e-11 0 0)
(2.853729527507944e-11 0 0)
(2.898985378508836e-11 0 0)
(2.943370924682411e-11 0 0)
(3.0016813480869e-11 0 0)
(3.039104455644824e-11 0 0)
(3.073916648722083e-11 0 0)
(3.098285183876307e-11 0 0)
(3.147022254183845e-11 0 0)
(3.193148410011791e-11 0 0)
(3.230571517569909e-11 0 0)
(3.254940052724003e-11 0 0)
(3.277567978224062e-11 0 0)
(3.309769256820514e-11 0 0)
(3.324564438878529e-11 0 0)
(3.355895412648005e-11 0 0)
(3.396799739513707e-11 0 0)
(3.445536809821385e-11 0 0)
(3.48383022220702e-11 0 0)
(3.541270340784345e-11 0 0)
(3.611765031765893e-11 0 0)
(3.673556674478116e-11 0 0)
(3.739699841324835e-11 0 0)
(3.798010264729257e-11 0 0)
(3.861542517094465e-11 0 0)
(3.915501416365219e-11 0 0)
(3.979033668730964e-11 0 0)
(4.035603482481609e-11 0 0)
(4.08434055278969e-11 0 0)
(4.140910366540247e-11 0 0)
(4.172241340309966e-11 0 0)
(4.250568774733632e-11 0 0)
(4.308008893311413e-11 0 0)
(4.354135049137715e-11 0 0)
(4.386336327735063e-11 0 0)
(4.403742424273599e-11 0 0)
(4.427240654601055e-11 0 0)
(4.46205284767801e-11 0 0)
(4.50208686971684e-11 0 0)
(4.532547538659695e-11 0 0)
(4.603912534467257e-11 0 0)
(4.667444786833992e-11 0 0)
(4.736198868161588e-11 0 0)
(4.811915388104644e-11 0 0)
(4.879799164605216e-11 0 0)
(4.948553245932817e-11 0 0)
(4.99467940176027e-11 0 0)
(5.057341349299501e-11 0 0)
(5.113911163049964e-11 0 0)
(5.173091891280274e-11 0 0)
(5.235753838820643e-11 0 0)
(5.320173407032658e-11 0 0)
(5.383705659398788e-11 0 0)
(5.44810821659173e-11 0 0)
(5.520343517226895e-11 0 0)
(5.572561806843085e-11 0 0)
(5.668295337804561e-11 0 0)
(5.743141552921643e-11 0 0)
(5.829301730787701e-11 0 0)
(5.915461908654212e-11 0 0)
(5.990308123770059e-11 0 0)
(6.065154338886205e-11 0 0)
(6.102577446444676e-11 0 0)
(6.166980003637296e-11 0 0)
(6.197440672580106e-11 0 0)
(6.224420122213856e-11 0 0)
(6.238344999445752e-11 0 0)
(6.254010486330384e-11 0 0)
(6.261843229772909e-11 0 0)
(6.265324449080644e-11 0 0)
(6.285341460100079e-11 0 0)
(6.280989935965418e-11 0 0)
(6.282730545618276e-11 0 0)
(6.26880566838836e-11 0 0)
(6.228771646349356e-11 0 0)
(6.187867319483713e-11 0 0)
(6.148703602271894e-11 0 0)
(6.096485312655733e-11 0 0)
(6.036434279597642e-11 0 0)
(5.996400257558553e-11 0 0)
(5.95201471138537e-11 0 0)
(5.939830443807097e-11 0 0)
(5.928516481058079e-11 0 0)
(5.909369774865568e-11 0 0)
(5.893704287980797e-11 0 0)
(5.882390325230697e-11 0 0)
(5.849318741807293e-11 0 0)
(5.804933195633865e-11 0 0)
(5.770991307382728e-11 0 0)
(5.729216675690707e-11 0 0)
(5.712680883979002e-11 0 0)
(5.687442043997974e-11 0 0)
(5.652629850920212e-11 0 0)
(5.61520674336267e-11 0 0)
(5.565599368227562e-11 0 0)
(5.5316574799773e-11 0 0)
(5.489882848283891e-11 0 0)
(5.467254922784357e-11 0 0)
(5.448108216591679e-11 0 0)
(5.434183339360953e-11 0 0)
(5.434183339360274e-11 0 0)
(5.441145777976331e-11 0 0)
(5.442016082803332e-11 0 0)
(5.428961510399184e-11 0 0)
(5.410685109033298e-11 0 0)
(5.359337124244657e-11 0 0)
(5.33757950357148e-11 0 0)
(5.296675176705681e-11 0 0)
(5.240105362954643e-11 0 0)
(5.195719816781611e-11 0 0)
(5.165259147839002e-11 0 0)
(5.139150003031044e-11 0 0)
(5.107819029261518e-11 0 0)
(5.082580189280021e-11 0 0)
(5.042546167241645e-11 0 0)
(5.041675862414749e-11 0 0)
(5.034713423799162e-11 0 0)
(5.036454033452699e-11 0 0)
(5.053860129991662e-11 0 0)
(5.053860129991747e-11 0 0)
(5.060822568607196e-11 0 0)
(5.048638301029712e-11 0 0)
(5.048638301030166e-11 0 0)
(5.031232204491543e-11 0 0)
(5.02949159483767e-11 0 0)
(5.009474583817794e-11 0 0)
(5.012085498299065e-11 0 0)
(5.000771535548936e-11 0 0)
(4.985976353491133e-11 0 0)
(4.981624829355985e-11 0 0)
(4.984235743837144e-11 0 0)
(4.987716963144976e-11 0 0)
(4.965089037644665e-11 0 0)
(4.964218732817334e-11 0 0)
(4.955515684548471e-11 0 0)
(4.940720502490642e-11 0 0)
(4.906778614240268e-11 0 0)
(4.876317945297688e-11 0 0)
(4.864133677720224e-11 0 0)
(4.84933849566273e-11 0 0)
(4.85543062945134e-11 0 0)
(4.853690019797411e-11 0 0)
(4.851949410143136e-11 0 0)
(4.840635447393499e-11 0 0)
(4.833673008777946e-11 0 0)
(4.824099655681779e-11 0 0)
(4.808434168796574e-11 0 0)
(4.794509291566091e-11 0 0)
(4.776232890200532e-11 0 0)
(4.767529841931204e-11 0 0)
(4.746642526084417e-11 0 0)
(4.75099405021951e-11 0 0)
(4.750994050219489e-11 0 0)
(4.746642526084829e-11 0 0)
(4.738809782642045e-11 0 0)
(4.752734659873316e-11 0 0)
(4.766659537104234e-11 0 0)
(4.761437708142686e-11 0 0)
(4.771011061238518e-11 0 0)
(4.776232890200451e-11 0 0)
(4.777973499854377e-11 0 0)
(4.770140756412005e-11 0 0)
(4.768400146758141e-11 0 0)
(4.767529841930776e-11 0 0)
(4.765789232277349e-11 0 0)
(4.771011061238949e-11 0 0)
(4.769270451585005e-11 0 0)
(4.773621975719316e-11 0 0)
(4.774492280546673e-11 0 0)
(4.780584414335188e-11 0 0)
(4.776232890200495e-11 0 0)
(4.766659537103783e-11 0 0)
(4.780584414335212e-11 0 0)
(4.777103195027456e-11 0 0)
(4.780584414335223e-11 0 0)
(4.769270451584685e-11 0 0)
(4.780584414335139e-11 0 0)
(4.780584414335212e-11 0 0)
(4.783195328816007e-11 0 0)
(4.787546852950187e-11 0 0)
(4.786676548123672e-11 0 0)
(4.801471730181576e-11 0 0)
(4.789287462604465e-11 0 0)
(4.792768681912208e-11 0 0)
(4.78319532881597e-11 0 0)
(4.774492280546645e-11 0 0)
)
;

boundaryField
{
    inlet
    {
        type            zeroGradient;
    }
    outlet
    {
        type            velocityOutletNSCBCx;
        pInf            101325;
        gamma           1.4;
        etaAc           1;
        fieldInf        (-1 0 0);
        lInf            2.25;
        value           uniform (4.774492216437654e-11 0 0);
    }
    frontAndBack
    {
        type            empty;
    }
}


// ************************************************************************* //
