/*--------------------------------*- C++ -*----------------------------------*\
| =========                 |                                                 |
| \\      /  F ield         | OpenFOAM: The Open Source CFD Toolbox           |
|  \\    /   O peration     | Version:  v2012                                 |
|   \\  /    A nd           | Website:  www.openfoam.com                      |
|    \\/     M anipulation  |                                                 |
\*---------------------------------------------------------------------------*/
FoamFile
{
    version     2.0;
    format      ascii;
    class       volVectorField;
    location    "0.0035";
    object      UMean;
}
// * * * * * * * * * * * * * * * * * * * * * * * * * * * * * * * * * * * * * //

dimensions      [0 1 -1 0 0 0 0];


internalField   nonuniform List<vector> 
1000
(
(0.00375261925427767 0 0)
(0.003598880675888991 0 0)
(0.003587611826548921 0 0)
(0.003478386405087232 0 0)
(0.003358129841827736 0 0)
(0.003195335994050824 0 0)
(0.003013949487457916 0 0)
(0.002807490640156801 0 0)
(0.00258614806597058 0 0)
(0.00234749171178766 0 0)
(0.002102519529382989 0 0)
(0.001855033393015895 0 0)
(0.001609629673208266 0 0)
(0.001366619263120918 0 0)
(0.001131279973085484 0 0)
(0.0009073219827748125 0 0)
(0.0007007396476218222 0 0)
(0.0005147664645688466 0 0)
(0.0003537862184516913 0 0)
(0.0002197036498898323 0 0)
(0.00011568310170042 0 0)
(4.284145280804177e-05 0 0)
(3.302378947339905e-06 0 0)
(-2.743022472077402e-06 0 0)
(2.5450942848523e-05 0 0)
(8.682283159438917e-05 0 0)
(0.0001806919574645312 0 0)
(0.0003048651064426105 0 0)
(0.0004578609546371707 0 0)
(0.0006373836833674638 0 0)
(0.000841872676808392 0 0)
(0.001067214898536966 0 0)
(0.001305878377567759 0 0)
(0.001548301429107204 0 0)
(0.001790928981875145 0 0)
(0.002032435220242341 0 0)
(0.002271952910978781 0 0)
(0.002505717781844748 0 0)
(0.002730587212148243 0 0)
(0.002940851939591091 0 0)
(0.003132392690165896 0 0)
(0.003299817122695603 0 0)
(0.003440337486986506 0 0)
(0.003550452422666805 0 0)
(0.003629180911192444 0 0)
(0.00367456104754689 0 0)
(0.003686794815923915 0 0)
(0.003664975310846222 0 0)
(0.003610310628080311 0 0)
(0.003522915480663824 0 0)
(0.0034047889194481 0 0)
(0.003256510877909317 0 0)
(0.003080119886815947 0 0)
(0.002876959602869998 0 0)
(0.002652707226670197 0 0)
(0.002416153158107269 0 0)
(0.002176958548016958 0 0)
(0.001937505941119892 0 0)
(0.001698905878716438 0 0)
(0.001462263597926194 0 0)
(0.001230014947685387 0 0)
(0.001005513853745697 0 0)
(0.0007930629078514369 0 0)
(0.0005974341922184119 0 0)
(0.0004234946275301037 0 0)
(0.0002755817392330923 0 0)
(0.0001572491200019422 0 0)
(7.094600046959072e-05 0 0)
(1.819269795189893e-05 0 0)
(-3.976490370621591e-07 0 0)
(1.519662984289189e-05 0 0)
(6.447558980011717e-05 0 0)
(0.000146669391532919 0 0)
(0.0002608416098300619 0 0)
(0.0004061264318914679 0 0)
(0.0005813780359220776 0 0)
(0.0007841193616664974 0 0)
(0.001008117998692241 0 0)
(0.001242943201900096 0 0)
(0.001480069232021366 0 0)
(0.001717139249160203 0 0)
(0.001953414291952294 0 0)
(0.00218805618556211 0 0)
(0.002418490104502898 0 0)
(0.00264220868511248 0 0)
(0.002854832893354724 0 0)
(0.003052411519233053 0 0)
(0.003229722084142748 0 0)
(0.003382761466901436 0 0)
(0.00350712405277687 0 0)
(0.003600323169754308 0 0)
(0.003659926465915158 0 0)
(0.003685505834517238 0 0)
(0.003676471143828838 0 0)
(0.003633762486416155 0 0)
(0.003557633035869921 0 0)
(0.003449341745132872 0 0)
(0.003309150593393686 0 0)
(0.003138492539891547 0 0)
(0.002939338185694708 0 0)
(0.002718448921231922 0 0)
(0.002486060457324312 0 0)
(0.002251398140570977 0 0)
(0.00201656783389093 0 0)
(0.001782392568685204 0 0)
(0.001549717550483202 0 0)
(0.001320434706248231 0 0)
(0.001097150496587663 0 0)
(0.000883379635735101 0 0)
(0.0006832236147986024 0 0)
(0.0005012767212344918 0 0)
(0.0003421024833776158 0 0)
(0.0002100193703785642 0 0)
(0.0001085292680894852 0 0)
(4.027489832698802e-05 0 0)
(6.723683462343686e-06 0 0)
(8.486023021997574e-06 0 0)
(4.53002131158425e-05 0 0)
(0.0001166049858865151 0 0)
(0.0002216005648538042 0 0)
(0.0003596117105863072 0 0)
(0.0005294563932961235 0 0)
(0.0007282081943751924 0 0)
(0.0009486307623380775 0 0)
(0.001179555850780743 0 0)
(0.00141257689547019 0 0)
(0.001645576883150007 0 0)
(0.001877938566842335 0 0)
(0.002108995565929978 0 0)
(0.002336681283651461 0 0)
(0.002558944066517982 0 0)
(0.002772141249038934 0 0)
(0.002972833362019865 0 0)
(0.00315628985739729 0 0)
(0.003318487412835697 0 0)
(0.003454766494298927 0 0)
(0.003561842514697813 0 0)
(0.003636444530864777 0 0)
(0.003677097520081284 0 0)
(0.00368250816723971 0 0)
(0.003652964908672104 0 0)
(0.003588489998593747 0 0)
(0.003490112776743096 0 0)
(0.003358158636555775 0 0)
(0.003194113149951268 0 0)
(0.003000308238555436 0 0)
(0.002783886112494032 0 0)
(0.002555502221107799 0 0)
(0.002324594551578954 0 0)
(0.002093469737827698 0 0)
(0.001862869603392454 0 0)
(0.001633415531030606 0 0)
(0.001406678139303136 0 0)
(0.001184764297295539 0 0)
(0.0009706709315529067 0 0)
(0.0007679137710846611 0 0)
(0.000580672524908213 0 0)
(0.0004132650169457827 0 0)
(0.0002701392584658727 0 0)
(0.0001552404622390269 0 0)
(7.200731287140367e-05 0 0)
(2.284542160749574e-05 0 0)
(9.349070732848069e-06 0 0)
(3.205995058559408e-05 0 0)
(9.101660933995773e-05 0 0)
(0.0001857016948898558 0 0)
(0.000315512165396722 0 0)
(0.000479021841506852 0 0)
(0.000672913856061391 0 0)
(0.0008893310842082653 0 0)
(0.001116683853352299 0 0)
(0.001346257812689073 0 0)
(0.001575868697946892 0 0)
(0.001804959931753189 0 0)
(0.002033011098361246 0 0)
(0.002258296154447304 0 0)
(0.002479090865509033 0 0)
(0.002692288924722509 0 0)
(0.002894860664223016 0 0)
(0.003082574265172945 0 0)
(0.003251607501137266 0 0)
(0.003397395830923901 0 0)
(0.003516336068042859 0 0)
(0.003604662080290306 0 0)
(0.003660083678904659 0 0)
(0.003680481746396055 0 0)
(0.003665286459256 0 0)
(0.00361390260277744 0 0)
(0.003526909430332203 0 0)
(0.003404502511984117 0 0)
(0.003248175419446624 0 0)
(0.003060495129106466 0 0)
(0.002848803457216285 0 0)
(0.002624145554843517 0 0)
(0.002396478764426671 0 0)
(0.002168531624038102 0 0)
(0.001941004579855334 0 0)
(0.001714352851530038 0 0)
(0.001489906337724348 0 0)
(0.001269409247444314 0 0)
(0.001055453341079485 0 0)
(0.0008510890217933494 0 0)
(0.000660084319486687 0 0)
(0.0004864315779810003 0 0)
(0.0003344629195683391 0 0)
(0.000208245367258017 0 0)
(0.0001116420186967858 0 0)
(4.772083426243519e-05 0 0)
(1.892989275527612e-05 0 0)
(2.669795592494837e-05 0 0)
(7.187298067345922e-05 0 0)
(0.0001545458244166087 0 0)
(0.0002744517395815107 0 0)
(0.0004302304545297755 0 0)
(0.0006183487167586455 0 0)
(0.0008305091116569321 0 0)
(0.001054518021626558 0 0)
(0.001281087179846186 0 0)
(0.001507739465258999 0 0)
(0.001733984172350792 0 0)
(0.001959387778138102 0 0)
(0.002182508448083478 0 0)
(0.002401857908187713 0 0)
(0.00261475607128188 0 0)
(0.002818506792788624 0 0)
(0.003009325664866626 0 0)
(0.003183637474352617 0 0)
(0.003337104607519931 0 0)
(0.003466032019241337 0 0)
(0.003566439614506544 0 0)
(0.003635481989365804 0 0)
(0.003670409144210671 0 0)
(0.003669831583512478 0 0)
(0.003632463662298407 0 0)
(0.00355821774788826 0 0)
(0.003446912867715995 0 0)
(0.003299762627360329 0 0)
(0.003119308556808919 0 0)
(0.00291288003522761 0 0)
(0.002691916314596736 0 0)
(0.002467169546831972 0 0)
(0.002242032815014795 0 0)
(0.002017230648347697 0 0)
(0.001793102299336985 0 0)
(0.001570763486927856 0 0)
(0.001351692905290532 0 0)
(0.00113814283836771 0 0)
(0.0009327910362587706 0 0)
(0.0007390339898122092 0 0)
(0.000560532229995789 0 0)
(0.0004014126575851052 0 0)
(0.0002656914235295879 0 0)
(0.0001574207094905928 0 0)
(8.007044306278198e-05 0 0)
(3.672684172840464e-05 0 0)
(2.957128408505128e-05 0 0)
(6.027676666124914e-05 0 0)
(0.0001296492515785397 0 0)
(0.0002380138595005746 0 0)
(0.0003843463203213767 0 0)
(0.0005652987343108389 0 0)
(0.000772468027260547 0 0)
(0.0009931250222943724 0 0)
(0.00121696692132338 0 0)
(0.001440993024978862 0 0)
(0.001664678076466936 0 0)
(0.001887715660849446 0 0)
(0.002108829037696254 0 0)
(0.002326780434774108 0 0)
(0.002539174581456706 0 0)
(0.002743659013856967 0 0)
(0.002936779901199344 0 0)
(0.003115270066596982 0 0)
(0.00327500651597223 0 0)
(0.003412370555580463 0 0)
(0.003523293719093207 0 0)
(0.003604621201991995 0 0)
(0.003653141394477096 0 0)
(0.003666820415643632 0 0)
(0.003643721027902555 0 0)
(0.003583065431995728 0 0)
(0.003484149663234722 0 0)
(0.00334769872478782 0 0)
(0.003175923140277515 0 0)
(0.002975745585825655 0 0)
(0.002758767920963922 0 0)
(0.002536761760701267 0 0)
(0.00231417613056135 0 0)
(0.002091842311209965 0 0)
(0.001870031347858338 0 0)
(0.001649658736667585 0 0)
(0.001432018662834546 0 0)
(0.001219042728029126 0 0)
(0.001013142198083897 0 0)
(0.0008173309956370121 0 0)
(0.0006350207800957322 0 0)
(0.0004700331666700761 0 0)
(0.0003263251440333261 0 0)
(0.0002079118276595033 0 0)
(0.0001185642388989857 0 0)
(6.171157919301468e-05 0 0)
(4.020743851592874e-05 0 0)
(5.633479605651298e-05 0 0)
(0.0001117019323400107 0 0)
(0.0002071997250671036 0 0)
(0.0003424683713672442 0 0)
(0.0005145919775869955 0 0)
(0.0007156797284710004 0 0)
(0.0009326125075174762 0 0)
(0.001153884554262743 0 0)
(0.001375448581839914 0 0)
(0.001596799311445375 0 0)
(0.001817607209988021 0 0)
(0.002036868164110187 0 0)
(0.002253420346600242 0 0)
(0.002465230077400152 0 0)
(0.002670102844905296 0 0)
(0.00286499644832277 0 0)
(0.003046807246884079 0 0)
(0.003211756347869232 0 0)
(0.00335625251097535 0 0)
(0.003476344024703766 0 0)
(0.00356862161960776 0 0)
(0.00362965832788889 0 0)
(0.003656864821365913 0 0)
(0.003647835796498627 0 0)
(0.003601109969775093 0 0)
(0.00351548236531849 0 0)
(0.003391044917179915 0 0)
(0.003229456170724006 0 0)
(0.003036818123613789 0 0)
(0.002824465477564543 0 0)
(0.002605226824752937 0 0)
(0.002385026215666113 0 0)
(0.002165011429265873 0 0)
(0.001945376624612731 0 0)
(0.001726895172202271 0 0)
(0.001510670889970616 0 0)
(0.00129840984962665 0 0)
(0.00109224907645586 0 0)
(0.0008949290388749328 0 0)
(0.0007095645197757645 0 0)
(0.0005397516361473531 0 0)
(0.0003892570353730877 0 0)
(0.0002620686107787805 0 0)
(0.0001620255811407641 0 0)
(9.284810148302079e-05 0 0)
(5.777851157516782e-05 0 0)
(5.968160642497336e-05 0 0)
(0.0001007462557747223 0 0)
(0.0001825392393458698 0 0)
(0.0003053240505347375 0 0)
(0.000467014144075066 0 0)
(0.000660577738654923 0 0)
(0.000873157379199319 0 0)
(0.001091797778740272 0 0)
(0.001311074463486274 0 0)
(0.001530178385208344 0 0)
(0.001748899457465226 0 0)
(0.001966333762839994 0 0)
(0.002181526636797371 0 0)
(0.002392613731334242 0 0)
(0.002597673963661814 0 0)
(0.002793881722103641 0 0)
(0.002978419987288203 0 0)
(0.003147698430604011 0 0)
(0.003298322347024164 0 0)
(0.003426379040908298 0 0)
(0.003528437381402885 0 0)
(0.003600856236915436 0 0)
(0.003640753244919308 0 0)
(0.003645273107447539 0 0)
(0.003612476257441937 0 0)
(0.003540606658321989 0 0)
(0.003429193073455975 0 0)
(0.003279133721189031 0 0)
(0.003095475834772514 0 0)
(0.00288869412283961 0 0)
(0.002672472319655195 0 0)
(0.002454564553239752 0 0)
(0.002236785943439005 0 0)
(0.002019236987711829 0 0)
(0.001802624120129571 0 0)
(0.001587819373955927 0 0)
(0.001376398322224755 0 0)
(0.001170203494584414 0 0)
(0.0009717935885761412 0 0)
(0.000783966981420932 0 0)
(0.0006101497717780124 0 0)
(0.0004538626469670973 0 0)
(0.0003190508915280532 0 0)
(0.0002095015764877541 0 0)
(0.0001291328088693967 0 0)
(8.140848970864181e-05 0 0)
(6.965280949221648e-05 0 0)
(9.64936917359032e-05 0 0)
(0.0001641144393776965 0 0)
(0.0002733881129875983 0 0)
(0.0004231905007234942 0 0)
(0.0006076965976987646 0 0)
(0.0008149339383585654 0 0)
(0.001030725547995858 0 0)
(0.001247797832043514 0 0)
(0.001464738469831524 0 0)
(0.001681432151615002 0 0)
(0.001897068259591693 0 0)
(0.00211087618946621 0 0)
(0.002321142212552946 0 0)
(0.00252618456769577 0 0)
(0.002723367872668887 0 0)
(0.002910132762662593 0 0)
(0.003083064329551427 0 0)
(0.003238969766801152 0 0)
(0.003374007250749413 0 0)
(0.003484792926964064 0 0)
(0.003567557147995175 0 0)
(0.00361924527193401 0 0)
(0.003636660386092348 0 0)
(0.003617511077112439 0 0)
(0.003559554236474582 0 0)
(0.003461815165480539 0 0)
(0.003324394039213678 0 0)
(0.00315116304403035 0 0)
(0.002951208201471893 0 0)
(0.002738508459140551 0 0)
(0.002522846914433764 0 0)
(0.002307203244655087 0 0)
(0.002091693265669218 0 0)
(0.001876895860565048 0 0)
(0.001663571158720946 0 0)
(0.001453070134768298 0 0)
(0.00124708341027309 0 0)
(0.001047896743214517 0 0)
(0.0008581329223391935 0 0)
(0.0006809458067045251 0 0)
(0.0005197238110222592 0 0)
(0.0003782260967404637 0 0)
(0.0002602457939357064 0 0)
(0.0001696980398224264 0 0)
(0.0001102728935094488 0 0)
(8.551661086027374e-05 0 0)
(9.849110553804863e-05 0 0)
(0.0001517897037426229 0 0)
(0.0002469537301100583 0 0)
(0.0003837115782730318 0 0)
(0.0005577185395983372 0 0)
(0.0007583277751471826 0 0)
(0.0009708210782259079 0 0)
(0.001185649111711327 0 0)
(0.001400483626024118 0 0)
(0.001615120621036567 0 0)
(0.001828977649491197 0 0)
(0.002041306162362907 0 0)
(0.002250679816854094 0 0)
(0.002455481096208884 0 0)
(0.002653392240923696 0 0)
(0.002841934744130424 0 0)
(0.00301800435907684 0 0)
(0.003178455061536181 0 0)
(0.003319681422768752 0 0)
(0.003438233898582642 0 0)
(0.003530428872936895 0 0)
(0.003592973679900241 0 0)
(0.003622572975550767 0 0)
(0.003616525719755526 0 0)
(0.0035723386927043 0 0)
(0.003488464039789196 0 0)
(0.003364424168771908 0 0)
(0.003202791046475319 0 0)
(0.003011141863069463 0 0)
(0.002802877654295167 0 0)
(0.002589796197928212 0 0)
(0.002376399674043798 0 0)
(0.002163100370758766 0 0)
(0.001950300673376747 0 0)
(0.001738672553324505 0 0)
(0.001529316805846656 0 0)
(0.001323754385145094 0 0)
(0.001123932256154553 0 0)
(0.0009321953183518575 0 0)
(0.0007512307726550814 0 0)
(0.0005839786267413348 0 0)
(0.0004335032908753498 0 0)
(0.0003028190178485085 0 0)
(0.0001946529622429492 0 0)
(0.0001110986994067403 0 0)
(5.303636985949467e-05 0 0)
(1.910704979942547e-05 0 0)
(4.363059972511234e-06 0 0)
(4.811882252501284e-07 0 0)
(1.781492953621088e-08 0 0)
(1.469302782614525e-10 0 0)
(1.731293916726325e-13 0 0)
(-8.111857258852267e-15 0 0)
(-8.520316502444612e-15 0 0)
(-7.198198424476071e-15 0 0)
(-4.450055969744155e-15 0 0)
(3.027614568767057e-15 0 0)
(4.679366422265e-15 0 0)
(-4.98033639126922e-15 0 0)
(-3.64388641001681e-15 0 0)
(-8.867865157103933e-15 0 0)
(-1.145835667571983e-14 0 0)
(-2.060211097110367e-15 0 0)
(3.228261214765173e-15 0 0)
(-4.181332783145438e-15 0 0)
(-1.516315367465565e-14 0 0)
(-1.929432479631659e-14 0 0)
(-2.987126942003365e-14 0 0)
(-2.999667357376684e-14 0 0)
(-3.849190924545148e-14 0 0)
(-3.815152654245064e-14 0 0)
(-4.942356847546754e-14 0 0)
(-5.169875812183979e-14 0 0)
(-4.811936527662524e-14 0 0)
(-5.168084324273971e-14 0 0)
(-6.563295108988472e-14 0 0)
(-7.877530640148279e-14 0 0)
(-7.601641501927701e-14 0 0)
(-7.45258970777186e-14 0 0)
(-7.418551437471507e-14 0 0)
(-7.030873453633726e-14 0 0)
(-5.997543226844288e-14 0 0)
(-5.203555784900563e-14 0 0)
(-4.869980735961145e-14 0 0)
(-3.977819756520434e-14 0 0)
(-3.925150011949341e-14 0 0)
(-2.863155978591463e-14 0 0)
(-1.766048782188949e-14 0 0)
(-2.301345369853854e-14 0 0)
(-1.367621870890378e-14 0 0)
(-1.261207488994576e-15 0 0)
(9.824519701315498e-15 0 0)
(1.517390260213218e-14 0 0)
(1.185248401603077e-14 0 0)
(1.238276443754479e-14 0 0)
(1.231827087276765e-14 0 0)
(1.398793760537236e-14 0 0)
(1.784321958881612e-14 0 0)
(3.820168820397378e-14 0 0)
(4.814444610737461e-14 0 0)
(4.890045400561185e-14 0 0)
(4.497351250574538e-14 0 0)
(4.710180014345083e-14 0 0)
(4.793305053393063e-14 0 0)
(6.813745118877757e-14 0 0)
(8.162377217918748e-14 0 0)
(7.03553132220075e-14 0 0)
(7.244418812567032e-14 0 0)
(8.664352130446199e-14 0 0)
(7.781865185722181e-14 0 0)
(7.093217232919175e-14 0 0)
(5.450781116554065e-14 0 0)
(6.044121912518104e-14 0 0)
(7.308912377347131e-14 0 0)
(7.651444865838601e-14 0 0)
(7.185299711521676e-14 0 0)
(6.662185241648756e-14 0 0)
(7.601999799507264e-14 0 0)
(6.523524077372737e-14 0 0)
(6.233661333450271e-14 0 0)
(5.758558739579314e-14 0 0)
(1.060560843028815e-13 0 0)
(6.463688381160403e-14 0 0)
(9.712730855683003e-14 0 0)
(7.98752799785192e-14 0 0)
(7.933783360536165e-14 0 0)
(8.852100063470792e-14 0 0)
(9.483420403138287e-14 0 0)
(9.02838247386541e-14 0 0)
(7.135138050024975e-14 0 0)
(1.001620890772596e-13 0 0)
(4.597674573561643e-14 0 0)
(7.015824955183997e-14 0 0)
(5.341858651591569e-14 0 0)
(5.57940994852751e-14 0 0)
(6.083892944129769e-14 0 0)
(4.491618489258123e-14 0 0)
(7.213605220505258e-14 0 0)
(3.220378667952871e-14 0 0)
(4.861381593990753e-14 0 0)
(4.328951386983994e-14 0 0)
(4.768582520227303e-14 0 0)
(5.455797282703982e-14 0 0)
(4.139411966052731e-14 0 0)
(3.665742562510129e-14 0 0)
(4.173091938770742e-14 0 0)
(7.959939084031132e-14 0 0)
(3.153018722519549e-14 0 0)
(7.190315877671582e-14 0 0)
(6.689415857889924e-14 0 0)
(7.269857940899527e-14 0 0)
(6.948106712170849e-14 0 0)
(6.397761626058566e-14 0 0)
(6.582284880842685e-14 0 0)
(5.537847429008564e-14 0 0)
(9.843151175574733e-14 0 0)
(3.773231837143836e-14 0 0)
(7.09106744742941e-14 0 0)
(6.370172712236441e-14 0 0)
(6.750684744431503e-14 0 0)
(7.0785270320552e-14 0 0)
(5.411726680105321e-14 0 0)
(8.114365341917692e-14 0 0)
(2.212487569495077e-14 0 0)
(4.98105298641515e-14 0 0)
(4.899002840112157e-14 0 0)
(5.518141061990455e-14 0 0)
(6.032656389892616e-14 0 0)
(6.342583798412126e-14 0 0)
(6.762150267055277e-14 0 0)
(5.26697445693323e-14 0 0)
(7.105757648293414e-14 0 0)
(2.293104525470851e-15 0 0)
(2.781464129875065e-14 0 0)
(2.408834644486937e-14 0 0)
(3.14728596120369e-14 0 0)
(3.355456856407327e-14 0 0)
(4.25191740683316e-14 0 0)
(5.31570292810026e-14 0 0)
(3.112172798159281e-14 0 0)
(1.00760446039394e-13 0 0)
(1.182382020948459e-15 0 0)
(7.573694290520981e-14 0 0)
(4.29706290217722e-14 0 0)
(5.623480551127814e-14 0 0)
(5.629571610023693e-14 0 0)
(6.401702899458282e-14 0 0)
(6.429291813280351e-14 0 0)
(6.734919650816118e-14 0 0)
(7.863557034444165e-14 0 0)
(8.626730884327142e-14 0 0)
(9.300330338683257e-14 0 0)
(9.923768131544014e-14 0 0)
(1.079192317298301e-13 0 0)
(1.051245105894034e-13 0 0)
(8.536439893636145e-14 0 0)
(1.018640025922743e-13 0 0)
(4.534972496695807e-14 0 0)
(8.741744408183176e-14 0 0)
(7.531773473417035e-14 0 0)
(7.836326418205615e-14 0 0)
(7.962088869523382e-14 0 0)
(8.878255786961505e-14 0 0)
(1.027274997651383e-13 0 0)
(9.948490664710139e-14 0 0)
(1.568985112034823e-13 0 0)
(4.873205414202963e-14 0 0)
(1.107103698944324e-13 0 0)
(8.50956757497963e-14 0 0)
(7.997918627734672e-14 0 0)
(7.220412874566398e-14 0 0)
(7.321452792721414e-14 0 0)
(7.210022244685308e-14 0 0)
(7.915510183847752e-14 0 0)
(8.104333009618168e-14 0 0)
(8.255176291684722e-14 0 0)
(7.652161461003972e-14 0 0)
(7.1075491362044e-14 0 0)
(8.063845382839583e-14 0 0)
(8.991119525326644e-14 0 0)
(7.408519105173263e-14 0 0)
(9.037698211000823e-14 0 0)
(2.805470067878691e-14 0 0)
(6.843483818194945e-14 0 0)
(5.727745147522447e-14 0 0)
(5.670059236802869e-14 0 0)
(5.283456145710795e-14 0 0)
(3.848832626965799e-14 0 0)
(5.326451855565252e-14 0 0)
(5.073493762599656e-14 0 0)
(1.21290897493994e-13 0 0)
(1.72627775058154e-14 0 0)
(9.241569535219716e-14 0 0)
(8.848158790069353e-14 0 0)
(1.010829138632856e-13 0 0)
(9.199290420529693e-14 0 0)
(7.68727462405e-14 0 0)
(6.37053100981529e-14 0 0)
(6.829868510072561e-14 0 0)
(6.447564989967367e-14 0 0)
(6.624205697945176e-14 0 0)
(7.012241979365346e-14 0 0)
(6.132979712880708e-14 0 0)
(6.030506604399238e-14 0 0)
(6.515283232985489e-14 0 0)
(8.215405260070085e-14 0 0)
(9.880772421692705e-14 0 0)
(9.684783644280237e-14 0 0)
(9.997577433458612e-14 0 0)
(1.001334252707245e-13 0 0)
(9.829177569870774e-14 0 0)
(9.791914621332079e-14 0 0)
(8.958872742937899e-14 0 0)
(9.255543140920935e-14 0 0)
(9.493094437855186e-14 0 0)
(9.59843392699158e-14 0 0)
(8.375564279270014e-14 0 0)
(1.002839102551591e-13 0 0)
(6.224345596314117e-14 0 0)
(1.036196607445503e-13 0 0)
(9.242644427960542e-14 0 0)
(1.008751012656295e-13 0 0)
(1.172564667194466e-13 0 0)
(1.333010324460722e-13 0 0)
(1.469557533000859e-13 0 0)
(1.597828067394142e-13 0 0)
(2.312882551999633e-13 0 0)
(1.250458561543999e-13 0 0)
(1.957057223211952e-13 0 0)
(1.80377751758778e-13 0 0)
(1.921370784034571e-13 0 0)
(1.996505787001735e-13 0 0)
(2.1975107305623e-13 0 0)
(2.343767803577265e-13 0 0)
(2.279740025654926e-13 0 0)
(2.288124189076459e-13 0 0)
(2.419870210016284e-13 0 0)
(2.544916066170711e-13 0 0)
(2.736891910662266e-13 0 0)
(2.92334997238909e-13 0 0)
(2.980928393833732e-13 0 0)
(2.980534266493338e-13 0 0)
(3.551911420675017e-13 0 0)
(3.321131948041847e-13 0 0)
(3.799602539184036e-13 0 0)
(3.99397897747555e-13 0 0)
(4.306808596410781e-13 0 0)
(4.479651350017796e-13 0 0)
(4.661093245595398e-13 0 0)
(4.910074235400112e-13 0 0)
(4.623471999474256e-13 0 0)
(5.336949974719178e-13 0 0)
(4.592120961040451e-13 0 0)
(5.328171683957394e-13 0 0)
(5.47657854246517e-13 0 0)
(5.610546008413272e-13 0 0)
(5.550172865829456e-13 0 0)
(5.679303314419458e-13 0 0)
(6.004315051146097e-13 0 0)
(6.077085290071764e-13 0 0)
(6.334092145715079e-13 0 0)
(6.449858094493355e-13 0 0)
(6.669028725466487e-13 0 0)
(7.075051545506553e-13 0 0)
(7.273046789377526e-13 0 0)
(7.427114749683028e-13 0 0)
(7.650190824299943e-13 0 0)
(8.250625912391162e-13 0 0)
(7.857967592163415e-13 0 0)
(8.534612575967476e-13 0 0)
(8.777000890260814e-13 0 0)
(9.064678018931322e-13 0 0)
(9.22856333298715e-13 0 0)
(9.249846209363517e-13 0 0)
(9.661852599025065e-13 0 0)
(9.739388195793436e-13 0 0)
(1.047984597896996e-12 0 0)
(9.71839195748166e-13 0 0)
(1.065996217349383e-12 0 0)
(1.071277523709546e-12 0 0)
(1.11122412113832e-12 0 0)
(1.13020672703837e-12 0 0)
(1.156706416210598e-12 0 0)
(1.181188889995932e-12 0 0)
(1.205241406682573e-12 0 0)
(1.226653270189124e-12 0 0)
(1.247094147248236e-12 0 0)
(1.244134609219864e-12 0 0)
(1.274367759198105e-12 0 0)
(1.31291699605648e-12 0 0)
(1.3488649924691e-12 0 0)
(1.368650184952916e-12 0 0)
(1.422943017569181e-12 0 0)
(1.385730230691901e-12 0 0)
(1.443351647845866e-12 0 0)
(1.459399796548284e-12 0 0)
(1.49455953828014e-12 0 0)
(1.517408175091152e-12 0 0)
(1.547351104027293e-12 0 0)
(1.578662729727586e-12 0 0)
(1.584445652702814e-12 0 0)
(1.661031760877635e-12 0 0)
(1.554674706605702e-12 0 0)
(1.647212223135564e-12 0 0)
(1.659408672830799e-12 0 0)
(1.708456028844799e-12 0 0)
(1.738957902009394e-12 0 0)
(1.759255460035648e-12 0 0)
(1.776134859128651e-12 0 0)
(1.779305792730182e-12 0 0)
(1.873581052533511e-12 0 0)
(1.798317062436619e-12 0 0)
(1.890026911551947e-12 0 0)
(1.903842866318183e-12 0 0)
(1.937469094398302e-12 0 0)
(1.967738074134744e-12 0 0)
(2.002113144161795e-12 0 0)
(2.083117061523886e-12 0 0)
(2.052332133269574e-12 0 0)
(2.190588421276137e-12 0 0)
(2.123536611761137e-12 0 0)
(2.235020904432545e-12 0 0)
(2.272806967441666e-12 0 0)
(2.318790879128856e-12 0 0)
(2.379389749190154e-12 0 0)
(2.406186825355851e-12 0 0)
(2.524138389384599e-12 0 0)
(2.468673923674805e-12 0 0)
(2.589122821850314e-12 0 0)
(2.623247083570498e-12 0 0)
(2.685777177599244e-12 0 0)
(2.708238853021873e-12 0 0)
(2.757773493747274e-12 0 0)
(2.821686616443261e-12 0 0)
(2.886011781357822e-12 0 0)
(2.942336161265091e-12 0 0)
(2.988402481396312e-12 0 0)
(3.104236506714914e-12 0 0)
(3.057106042764769e-12 0 0)
(3.19792057550758e-12 0 0)
(3.248247053890107e-12 0 0)
(3.332812449217715e-12 0 0)
(3.396542840147214e-12 0 0)
(3.476360792512651e-12 0 0)
(3.531850339053181e-12 0 0)
(3.585301172351314e-12 0 0)
(3.732167351255871e-12 0 0)
(3.696312512214891e-12 0 0)
(3.834755114964134e-12 0 0)
(3.88820594826239e-12 0 0)
(3.956945339388548e-12 0 0)
(4.002441966364906e-12 0 0)
(4.067723785824121e-12 0 0)
(4.187409510150372e-12 0 0)
(4.210591363712606e-12 0 0)
(4.326242657264161e-12 0 0)
(4.401123268948156e-12 0 0)
(4.485627753686545e-12 0 0)
(4.564213162370669e-12 0 0)
(4.648180200736513e-12 0 0)
(4.733612676213581e-12 0 0)
(4.799249210279185e-12 0 0)
(4.943363663753209e-12 0 0)
(4.923617884003641e-12 0 0)
(5.092791670369807e-12 0 0)
(5.158754255235592e-12 0 0)
(5.271592912766425e-12 0 0)
(5.349407981648892e-12 0 0)
(5.437018906424947e-12 0 0)
(5.522118165150922e-12 0 0)
(5.598682775470435e-12 0 0)
(5.751514609117008e-12 0 0)
(5.743882870618502e-12 0 0)
(5.90768935920391e-12 0 0)
(5.995612002877453e-12 0 0)
(6.11152485366404e-12 0 0)
(6.20969122520901e-12 0 0)
(6.291651797115254e-12 0 0)
(6.418940596133644e-12 0 0)
(6.465350881943732e-12 0 0)
(6.577293795520807e-12 0 0)
(6.659537422516921e-12 0 0)
(6.76547885159219e-12 0 0)
(6.861086978402597e-12 0 0)
(6.983961551208999e-12 0 0)
(7.099383534308265e-12 0 0)
(7.193837942902603e-12 0 0)
(7.382685849502172e-12 0 0)
(7.390611392018696e-12 0 0)
(7.586926220228149e-12 0 0)
(7.697597177389822e-12 0 0)
(7.825609737523873e-12 0 0)
(7.948469978427808e-12 0 0)
(8.063995867825377e-12 0 0)
(8.201947602887175e-12 0 0)
(8.305162387364578e-12 0 0)
(8.512462619442265e-12 0 0)
(8.540370418112647e-12 0 0)
(8.744847265242225e-12 0 0)
(8.866345975335216e-12 0 0)
(8.992398647695166e-12 0 0)
(9.115280386453886e-12 0 0)
(9.23263717649635e-12 0 0)
(9.397500642950057e-12 0 0)
(9.468242917560776e-12 0 0)
(9.638839145326592e-12 0 0)
(9.758782843913409e-12 0 0)
(9.886748825361769e-12 0 0)
(1.000488670413346e-11 0 0)
(1.011367659898803e-11 0 0)
(1.023523980264398e-11 0 0)
(1.032572069105307e-11 0 0)
(1.051927304490551e-11 0 0)
(1.053249780866153e-11 0 0)
(1.074398653947232e-11 0 0)
(1.08278174247593e-11 0 0)
(1.095268771509841e-11 0 0)
(1.109504292744431e-11 0 0)
(1.121371108663728e-11 0 0)
(1.134380535572363e-11 0 0)
(1.14364503615286e-11 0 0)
(1.162367876305559e-11 0 0)
(1.163274369188425e-11 0 0)
(1.181883629007762e-11 0 0)
(1.192735746174542e-11 0 0)
(1.206797134784118e-11 0 0)
(1.218394869219368e-11 0 0)
(1.229595609933536e-11 0 0)
(1.244292976751482e-11 0 0)
(1.250590773351962e-11 0 0)
(1.264265558870732e-11 0 0)
(1.274423295323335e-11 0 0)
(1.285727225741202e-11 0 0)
(1.296557128457717e-11 0 0)
(1.308689801183086e-11 0 0)
(1.32032336537646e-11 0 0)
(1.328284737650761e-11 0 0)
(1.34562096616082e-11 0 0)
(1.345532824955685e-11 0 0)
(1.364242408098047e-11 0 0)
(1.373776706757846e-11 0 0)
(1.386270901743285e-11 0 0)
(1.397293210261687e-11 0 0)
(1.407920674844484e-11 0 0)
(1.419784624383126e-11 0 0)
(1.429458659099948e-11 0 0)
(1.447599265681759e-11 0 0)
(1.447909193090415e-11 0 0)
(1.46467787823051e-11 0 0)
(1.472724167031768e-11 0 0)
(1.484143469270946e-11 0 0)
(1.495573520437728e-11 0 0)
(1.504568581236498e-11 0 0)
(1.521257366015754e-11 0 0)
(1.519950296436108e-11 0 0)
(1.538883815567386e-11 0 0)
(1.545119626686334e-11 0 0)
(1.56280627023175e-11 0 0)
(1.562523215141752e-11 0 0)
(1.580677078734376e-11 0 0)
(1.5903009517897e-11 0 0)
(1.601274531836835e-11 0 0)
(1.611204391027104e-11 0 0)
(1.621212359090549e-11 0 0)
(1.637800462249304e-11 0 0)
(1.637182040622528e-11 0 0)
(1.655839670615336e-11 0 0)
(1.665256089370771e-11 0 0)
(1.675710137923833e-11 0 0)
(1.687199308191584e-11 0 0)
(1.698356336600735e-11 0 0)
(1.708006723677012e-11 0 0)
(1.716705830673009e-11 0 0)
(1.732705609201949e-11 0 0)
(1.731930969829374e-11 0 0)
(1.749601131685895e-11 0 0)
(1.757777840807285e-11 0 0)
(1.768184952377016e-11 0 0)
(1.778609262230801e-11 0 0)
(1.789862314391795e-11 0 0)
(1.801386239525178e-11 0 0)
(1.810316448461544e-11 0 0)
(1.827379295916525e-11 0 0)
(1.827024581310069e-11 0 0)
(1.844552140729202e-11 0 0)
(1.853690878858357e-11 0 0)
(1.864068251728845e-11 0 0)
(1.873543431287461e-11 0 0)
(1.881111392816762e-11 0 0)
(1.899148451397516e-11 0 0)
(1.898002615729959e-11 0 0)
(1.91434026887861e-11 0 0)
(1.921494038403003e-11 0 0)
(1.933547169065039e-11 0 0)
(1.943372405361509e-11 0 0)
(1.953394705328134e-11 0 0)
(1.964293759477994e-11 0 0)
(1.973047327706561e-11 0 0)
(1.989580253037639e-11 0 0)
(1.988142763138157e-11 0 0)
(2.006639517516585e-11 0 0)
(2.013809768729865e-11 0 0)
(2.024270983234543e-11 0 0)
(2.03472861476337e-11 0 0)
(2.045525912399904e-11 0 0)
(2.055354731672462e-11 0 0)
(2.062506351411226e-11 0 0)
(2.080027461473728e-11 0 0)
(2.078224508040423e-11 0 0)
(2.095986752375763e-11 0 0)
(2.105468739588628e-11 0 0)
(2.115387133256475e-11 0 0)
(2.126312701427354e-11 0 0)
(2.13578931417658e-11 0 0)
(2.154244506035663e-11 0 0)
(2.153688786485766e-11 0 0)
(2.172026815035452e-11 0 0)
(2.181966706558237e-11 0 0)
(2.193171388545766e-11 0 0)
)
;

boundaryField
{
    inlet
    {
        type            calculated;
        value           uniform (0.00375261925427767 0 0);
    }
    outlet
    {
        type            calculated;
        value           uniform (2.197238261060241e-11 0 0);
    }
    frontAndBack
    {
        type            empty;
    }
}


// ************************************************************************* //
