/*--------------------------------*- C++ -*----------------------------------*\
| =========                 |                                                 |
| \\      /  F ield         | OpenFOAM: The Open Source CFD Toolbox           |
|  \\    /   O peration     | Version:  v2012                                 |
|   \\  /    A nd           | Website:  www.openfoam.com                      |
|    \\/     M anipulation  |                                                 |
\*---------------------------------------------------------------------------*/
FoamFile
{
    version     2.0;
    format      ascii;
    class       volScalarField;
    location    "0.013";
    object      rho;
}
// * * * * * * * * * * * * * * * * * * * * * * * * * * * * * * * * * * * * * //

dimensions      [1 -3 0 0 0 0 0];


internalField   nonuniform List<scalar> 
1000
(
1.176260745219687
1.176030443617535
1.17595307634425
1.176003287654265
1.176158329524257
1.17627392895134
1.176400582336809
1.17640921532615
1.176292472630339
1.176060652670809
1.175828118628402
1.175692225652617
1.175653053128676
1.17572329543003
1.175849782257854
1.176040542508329
1.176256194672976
1.176382084068098
1.176397921463533
1.176419772947381
1.176392560629903
1.176329882020986
1.176269889176244
1.176198488994891
1.176233839995629
1.176403905947711
1.176635731414121
1.176797270276315
1.176898446587398
1.176879469869266
1.176830944974982
1.176717114334674
1.176659727220559
1.176701662356313
1.176799502624088
1.176903172951813
1.17694892211705
1.176890092614674
1.17676855362479
1.17668238569389
1.176655973207575
1.176667938241413
1.176712926795205
1.176700966097554
1.176595631416394
1.176381211874459
1.176211272680444
1.176129037402996
1.176153020906693
1.176247483584894
1.176346782776013
1.176378487750247
1.176302785557537
1.176153910858469
1.175976415295758
1.175839761515734
1.175798337966441
1.175841366097745
1.175952111685865
1.176022578134502
1.176065368442026
1.176050429861011
1.176045338044036
1.176099150019715
1.176178934733036
1.176263778608277
1.176323956858932
1.176335948989082
1.176339452290598
1.176307174714411
1.176306562733576
1.176389570269056
1.176533018939173
1.176664400558622
1.176828132591327
1.17689229474586
1.176923227053028
1.176866441039938
1.176760058295717
1.176685056942455
1.176699304093384
1.176700761657445
1.176802287359077
1.176954061580206
1.177054333037897
1.177060717425763
1.176946908612708
1.17675490515093
1.176449610854625
1.176247927063873
1.176206464210903
1.176220476273432
1.176376328086525
1.176557816701668
1.176648893383044
1.176614591164372
1.176471391812296
1.176206744609678
1.175929990399191
1.17573577475818
1.175687561715231
1.175784741350573
1.17595931990418
1.17611518361159
1.176172076265672
1.1761317150137
1.176008811202513
1.175900228679019
1.175878167311677
1.17596312753859
1.176118058857024
1.176281107834324
1.176371756488612
1.176399867104962
1.176374135602311
1.176330633071962
1.176304746975956
1.176371178436737
1.176509241187679
1.176698243094044
1.176790808657373
1.176827452161677
1.176791958233054
1.176736186702281
1.176674425716238
1.17670757934328
1.176880907835194
1.177016466504561
1.177111865603629
1.177069120980332
1.176859118613968
1.176655714451526
1.176472671733451
1.176400364413213
1.17643545178768
1.176648159071049
1.176844866285872
1.176917660224387
1.176800678331958
1.176507156967668
1.176150892966415
1.175866352380356
1.175766594190585
1.175860227496895
1.176145338973107
1.176400408995162
1.176476836811605
1.176364037462222
1.176113502919178
1.175744009748179
1.175501413758826
1.175466315377282
1.175609223517309
1.17588729851645
1.176342507733895
1.176557409431322
1.176580873176481
1.176564593130525
1.176327987944904
1.175958592177476
1.175792529295036
1.175875200332922
1.175868015378377
1.17609487355849
1.176670581591093
1.177105025774061
1.177370314227932
1.177525266459183
1.177482343474544
1.17704190763982
1.176397365362351
1.176019000206967
1.17576200201645
1.175720362633939
1.176073950188409
1.177038115969528
1.177890048636254
1.178270208121448
1.178328762941932
1.178139223358578
1.177438712067143
1.176149344214098
1.175221899261971
1.1748207712371
1.174711900882132
1.174761587986263
1.175450890625986
1.176827507698069
1.177714849817286
1.178016052465379
1.178204503216618
1.178198080202035
1.177592706794074
1.175966920735332
1.17460377123272
1.173896371049036
1.173432441455547
1.173247737905421
1.173489998593965
1.174910224929935
1.176966515439136
1.178330486946768
1.179028566247074
1.179204440966479
1.178950203189973
1.178275863558184
1.176171863825113
1.173993387094362
1.172979538294656
1.172789569327777
1.173089938865019
1.17347901973775
1.174648444547316
1.176976080918469
1.178588642838642
1.179198320382437
1.179565353070461
1.179613451837636
1.179025014344332
1.17736476259177
1.176043585950341
1.17528238191298
1.174935057420196
1.175156377455169
1.175975499092592
1.176854353517371
1.177442975587937
1.177643553337427
1.177512487453369
1.17718590042553
1.176893522393794
1.176983548258057
1.177401831148725
1.177842247738268
1.178088602237245
1.177857471234218
1.176651773823278
1.175297346437197
1.174289733649064
1.173571789826029
1.173435711760575
1.174147195676227
1.175407149984986
1.176638834601346
1.177462066884056
1.177661807459983
1.177324164143273
1.17671904985439
1.176046064605373
1.175541307453004
1.175355074464272
1.175523483929933
1.175805272473751
1.175987611879792
1.175988745525145
1.175701945023117
1.1754579001608
1.175078515329157
1.175089653476794
1.175614468145729
1.176956601631065
1.177886743188736
1.178538430801207
1.178854821079546
1.178752142472504
1.177845559747235
1.176830971145697
1.176186241622561
1.175747993422315
1.175728579148969
1.175947148257343
1.176333769239286
1.176778643234277
1.177092586876117
1.177256152017602
1.177298456457378
1.177395018508538
1.177635621092228
1.177804630339184
1.17772852144515
1.177389936529521
1.177174183819247
1.176275904119493
1.175144045550555
1.174653822241252
1.174612165124006
1.174558780362406
1.175032956178562
1.175937627970951
1.176410642977552
1.176396528567054
1.176454930929853
1.17617169713841
1.175771809032642
1.175558496087319
1.175701858233122
1.176105375342837
1.17666403004508
1.177085732185999
1.177088965790958
1.176431031827516
1.175322072260392
1.17426651104211
1.173679923531153
1.173934226761833
1.175061646955435
1.177034701164615
1.178896277487038
1.179893365976652
1.179894991465749
1.179135975759934
1.177509319121064
1.175815891797251
1.174970709696586
1.17511049726016
1.175823859030552
1.176796524270097
1.177635944249948
1.17779761834132
1.177429795502824
1.176711593988772
1.176092050105658
1.175908907614604
1.176392072073179
1.177424073093196
1.17838600126335
1.178965855398138
1.178822618816477
1.177784779551523
1.175881349178117
1.174066578783246
1.173025121510092
1.172847966068953
1.17356021444412
1.175178394062156
1.176839440326432
1.177784120128296
1.177796666558217
1.177157952108226
1.176177562346517
1.175236151326052
1.174989089849517
1.175413198939476
1.176122271348049
1.176711672081099
1.176728040899532
1.176370637800729
1.175313358028258
1.174415994756777
1.174170224661109
1.174696455707718
1.175248585815936
1.177035921343864
1.178704656136338
1.179306414389855
1.178857963938743
1.17861466003241
1.177375158382062
1.176105812973592
1.175632288236765
1.176133976209273
1.176254079459495
1.176914809407766
1.177188764930776
1.176927316224398
1.17635118238132
1.176232600645908
1.176028795531374
1.176563960540196
1.177360192900187
1.178366722733278
1.179016310537326
1.178989552139183
1.178133872786268
1.17701280167242
1.174993367836813
1.173466938503105
1.173031330564902
1.173743024354857
1.17457250460078
1.176181636068205
1.177321657620262
1.177485114705128
1.176710762585542
1.176014806585958
1.174966727102403
1.174482200920002
1.174773273911071
1.175763615777834
1.176611218304057
1.177571225109902
1.17776085337415
1.177162914429393
1.176157882443979
1.174437872814658
1.173335742683641
1.173127861807254
1.17377772341689
1.175011688767647
1.177713900008735
1.179977097535817
1.180760567891106
1.180300736335401
1.179400379426127
1.177102599835546
1.17522605127848
1.174738992495706
1.17523871266467
1.175655819657325
1.176749919968691
1.177478278139638
1.177350857935505
1.176864440297664
1.17624779850593
1.175985422932267
1.176397386807876
1.177199544917962
1.178335416836341
1.179152137390581
1.179247294047479
1.178481881927661
1.177144519303833
1.174917333417013
1.172610569438192
1.171731669077861
1.172171828083173
1.173299291389573
1.175054089221145
1.177586397414178
1.178805960604166
1.17878909069287
1.177679532267979
1.176532454736039
1.174740499543205
1.173957575289273
1.174066802058907
1.174856700347599
1.175948754271505
1.176685696984827
1.176819045603243
1.176067253162081
1.174817895942225
1.173564106882446
1.173073435121992
1.173674622162024
1.17585941024434
1.1790951487195
1.181288917964861
1.182169760241378
1.181679573481481
1.179796831782228
1.176306970496223
1.173388840952692
1.172250220378423
1.172849265689539
1.174368357557811
1.177102705572205
1.179345869497296
1.179996875505991
1.179186243915318
1.177445794570432
1.175858856244452
1.174669946649593
1.174788813046784
1.175908059887021
1.177387224893351
1.178736902440657
1.179010552442364
1.177989798812309
1.175761700289604
1.172911687333955
1.171054388309262
1.170786850820658
1.172028383189521
1.174502889191067
1.178081053247051
1.18000456820783
1.18011826171484
1.178791957174764
1.176949396274758
1.174155262733376
1.172805472824919
1.17282414756739
1.173924496067669
1.175347258737889
1.176258627625074
1.176302303530911
1.175258032620314
1.174258160203798
1.173583022477226
1.174110392328917
1.175525172534741
1.178524259765682
1.180638056719762
1.18105056262137
1.180398298743411
1.17929759062904
1.176765509253274
1.174581486282361
1.173983027043949
1.174283143293033
1.174734060482809
1.176014011833646
1.177319508571124
1.177440954969395
1.177073493691748
1.176603521169744
1.176275020604588
1.17643528265772
1.177049556785657
1.177259923418904
1.177719180117972
1.177566080022349
1.176751893342532
1.176479080280907
1.175019875313903
1.173346929553955
1.17250841630288
1.172807487860539
1.172691173873798
1.173959867555784
1.17594462041995
1.177169031331973
1.177267447678583
1.177669387154639
1.177087132995341
1.176050282028268
1.175217160452613
1.17502036159184
1.174403969636679
1.174499576159959
1.174338734427218
1.173890418766752
1.173748615748624
1.173521521869412
1.173818561086361
1.175128543707497
1.176919159409745
1.178597693153599
1.180326565680567
1.180908575543206
1.180032003134293
1.178112496940179
1.175863749489386
1.173162099917158
1.17211086073089
1.172797839423812
1.174496106030144
1.17658335360237
1.178980461009398
1.17990710017798
1.179159616686685
1.177234527959651
1.175449034956964
1.174031261560917
1.174036171452994
1.175308661568713
1.17662251717235
1.178301638663558
1.178837120204379
1.177978722104239
1.176030641486215
1.173627863379808
1.171386246053869
1.170761264190858
1.171816978557667
1.173599395486293
1.176355364573179
1.178619049360859
1.179133570894106
1.177817617785271
1.175850708293706
1.173326916064907
1.171797014836544
1.171946003716557
1.173523433632192
1.175682981172371
1.177524812384906
1.178318945909343
1.17756189228345
1.175720462064238
1.173751421862963
1.172521030101351
1.172920517684891
1.173553107713328
1.175711821703842
1.178017980726602
1.179000144876907
1.179560220753443
1.17921506653007
1.178079364730655
1.176281701246869
1.175291204613997
1.174338230206416
1.174358437557739
1.174842520764381
1.175639525113076
1.175916073082022
1.176397811050109
1.176095773890024
1.176021247606628
1.176358305571241
1.177272019743025
1.177278386205609
1.178026510458432
1.177767822663631
1.176709285783976
1.175369854119064
1.174278913510439
1.172669972273881
1.17181577984856
1.172212831063661
1.172556087145474
1.173588331011412
1.175340176718545
1.176683878209941
1.176755072380203
1.177346703776199
1.176825406014073
1.17589616838023
1.174869378627059
1.174229100709097
1.173611681094331
1.173606825807401
1.173727565410132
1.173879748443688
1.174324788766234
1.174418907409907
1.174672138356474
1.17531042331401
1.175292342789108
1.176463927304331
1.177721885906452
1.178365040129096
1.178075670327004
1.17843621896968
1.177756786659066
1.176342996836798
1.174964518174546
1.17431566217886
1.173545272530456
1.173844912521405
1.174926767057646
1.176238236998629
1.177307265638537
1.177770824506922
1.177610775800546
1.17722788115565
1.177033881643118
1.176288801013616
1.176438090501839
1.176438494405593
1.175949961817341
1.174788495141887
1.17425804308855
1.172555201378241
1.170996014646814
1.170544994091725
1.17172889236314
1.173500518169965
1.176311363276104
1.17881795152151
1.179611309294334
1.178504055992149
1.176128103998272
1.173601030407794
1.171010829687581
1.17007013048001
1.170920446432242
1.173035139181567
1.175550712490255
1.178127574248647
1.179335189806096
1.178587648374
1.176598930317107
1.17425860877841
1.171999457303355
1.170925060993195
1.171441801086131
1.17418590663609
1.177164258556961
1.180021865729634
1.181588084815107
1.181801994846977
1.179655819914787
1.176556233888365
1.173060024963342
1.170626361504001
1.169716664216866
1.171098277821117
1.174049362945557
1.177278417146932
1.179696876357908
1.18068924991894
1.180163695042816
1.178688870924466
1.175970280916481
1.174149926821618
1.172543459720498
1.172159515202106
1.172616749065555
1.17351663939265
1.174165060615862
1.174404741244965
1.174158511062344
1.17369180560627
1.173168946357421
1.173284671730159
1.174215102607231
1.175310716662537
1.176333512067212
1.176870152093992
1.176591277786809
1.174870311742486
1.173396490014777
1.172048032535839
1.172007109056582
1.173326959878677
1.17511992221834
1.176489645197731
1.176463716582367
1.175112449442839
1.173277661840099
1.172166309436764
1.172597602827617
1.17490973255417
1.1775853037927
1.180182312993488
1.181267455572876
1.180428941332494
1.177447126660475
1.173669965147789
1.170375435578286
1.169008811771608
1.169985396318806
1.173058797232089
1.176772751184736
1.180050866145749
1.182004010667407
1.181618239831966
1.179274510054651
1.175776227162693
1.172554053922342
1.170314427020392
1.170539549571372
1.172108380759065
1.174470756014607
1.175938663004929
1.176452544591656
1.175550927606827
1.17418694764058
1.172025961081528
1.170974980731043
1.171088904539306
1.173288654447366
1.175571223389463
1.17794335729915
1.178803608112942
1.17809566887266
1.175507910862013
1.172671382073028
1.170062451350436
1.168885647871925
1.169340286241015
1.171093537505649
1.173954900858507
1.176313696195987
1.178415033350878
1.178994659226753
1.178381709996124
1.177006193420438
1.176144515239294
1.175281892655428
1.174563369316607
1.174348485156738
1.174225922751274
1.174604205260693
1.174099157582185
1.173805922818019
1.173957963403805
1.174807997940529
1.175515803830244
1.176568058862167
1.177950778301452
1.178933525225111
1.178904929102917
1.177870503733141
1.176580693397885
1.174464283437586
1.172859233745819
1.171513932539908
1.17111463647807
1.171473523583896
1.172493605617407
1.173412206644445
1.173928022544606
1.174321474382784
1.174481885920992
1.174597940997723
1.17442581678171
1.174545931496269
1.17419884257403
1.173772012113219
1.173367570581841
1.173554878013363
1.173226249811764
1.173567518493972
1.174260233360967
1.175073312758276
1.174824267210044
1.175071653491892
1.17422525569494
1.172882021330088
1.171846853464238
1.17098186911306
1.171074986902744
1.173001938465223
1.176748321651642
1.1788989505313
1.181066940349617
1.181430363699325
1.179664775496936
1.175520315091793
1.172458608465756
1.169662106855917
1.168814042817785
1.169921488121713
1.172807522498506
1.175842855409007
1.178559570109253
1.179843569601002
1.179668130316667
1.178391198254148
1.176685437930644
1.175075227671634
1.173923783706253
1.172823116911947
1.17234591458913
1.17173790745678
1.171028879167864
1.170762283997531
1.170357164867256
1.171489901801667
1.17439027235282
1.176659549682244
1.177948888714305
1.177879283125836
1.175972821613875
1.172572089714226
1.169853579965193
1.168862167957417
1.169442354008361
1.171577456868218
1.174554634026922
1.176849008804352
1.177637110921306
1.176934675996403
1.175291272655559
1.17328029802917
1.171658683950566
1.171039046839105
1.171795668552109
1.173849417665397
1.175670314599762
1.177660680563428
1.178275660194701
1.177316205046544
1.175275052935656
1.173634795209889
1.172235410250364
1.171577333478721
1.172334950061289
1.174206941035981
1.175939237756452
1.176636392616463
1.177575955786082
1.177398333882947
1.176235500657118
1.174851346330393
1.174317745832896
1.173556534846045
1.173281787605461
1.173343264300618
1.173098476342692
1.173098232699297
1.172945843875183
1.172621409097604
1.172761735854672
1.172376271107338
1.172780223815637
1.173490228613117
1.174175053984664
1.173866696666666
1.173935481788624
1.173125665552201
1.172335986962075
1.171792355631739
1.172410627191079
1.172600820159068
1.173710761349217
1.174795533112242
1.175374846666037
1.174741684321113
1.17434285952814
1.173041730050457
1.171844425242271
1.171277034502322
1.171316406764236
1.171669637288817
1.173589635764014
1.176689249265884
1.178043897722918
1.179511554155835
1.179381568472103
1.177369954635233
1.173638999023556
1.171541694070829
1.169847101250257
1.169517227869602
1.170640559726096
1.173291859544744
1.175629149046014
1.177649218830712
1.178583713234892
1.178141606850986
1.17666695610061
1.175164712637264
1.173770145065594
1.172779110507577
1.172243105279597
1.171413569326751
1.171102090555386
1.170821141825428
1.170599199071757
1.170960434462841
1.170935154943529
1.171774934021924
1.173418187086494
1.17465873601171
1.174743303079705
1.175394610312004
1.174767201492476
1.173015527793067
1.171537265843885
1.171291743324004
1.170553779923116
1.170789861046906
1.171688649687074
1.172488717900259
1.172724971917908
1.173058506354898
1.17308236459879
1.173013392312181
1.173008658948757
1.173696818969976
1.174285865008471
1.17538880545642
1.176164308423795
1.176069926462257
1.175962347305843
1.174820050476019
1.172806661432844
1.171610522720866
1.171636203095311
1.171384274033562
1.172244023252496
1.174099884410791
1.175520006492074
1.17567801544103
1.176116561356003
1.175575323616619
1.174447745230017
1.173601694462765
1.173317310050016
1.17310450002362
1.173192757674032
1.173251698576558
1.173220479011292
1.172708956560745
1.171740851063341
1.171072263560762
1.170890467616916
1.17076069318154
1.171734312397248
1.173345915218367
1.174350587500455
1.174566347587054
1.174732381043426
1.173848660788861
1.172427493944773
1.171511822341845
1.171421521138256
1.171135022271899
1.17165947206337
1.172634818691234
1.173401699647434
1.173585541883248
1.173647904809552
1.173300218187603
1.173075225913262
)
;

boundaryField
{
    inlet
    {
        type            calculated;
        value           uniform 1.176411716172193;
    }
    outlet
    {
        type            calculated;
        value           uniform 1.173122340589559;
    }
    frontAndBack
    {
        type            empty;
    }
}


// ************************************************************************* //
