/*--------------------------------*- C++ -*----------------------------------*\
| =========                 |                                                 |
| \\      /  F ield         | OpenFOAM: The Open Source CFD Toolbox           |
|  \\    /   O peration     | Version:  v2012                                 |
|   \\  /    A nd           | Website:  www.openfoam.com                      |
|    \\/     M anipulation  |                                                 |
\*---------------------------------------------------------------------------*/
FoamFile
{
    version     2.0;
    format      ascii;
    class       volVectorField;
    location    "0.013";
    object      U;
}
// * * * * * * * * * * * * * * * * * * * * * * * * * * * * * * * * * * * * * //

dimensions      [0 1 -1 0 0 0 0];


internalField   nonuniform List<vector> 
1000
(
(-0.1175222642512205 0 0)
(-0.09631655542704916 0 0)
(-0.05932841196997656 0 0)
(-0.01583710094693691 0 0)
(0.008973596934273501 0 0)
(0.006170738517003575 0 0)
(-0.0171478712141045 0 0)
(-0.06469278726542441 0 0)
(-0.09737030421820041 0 0)
(-0.1344522523689654 0 0)
(-0.1637289444176294 0 0)
(-0.1765747075906036 0 0)
(-0.1744911025039065 0 0)
(-0.1749712098216606 0 0)
(-0.1579032933002378 0 0)
(-0.116271128908693 0 0)
(-0.05765485670797323 0 0)
(-0.0179598941715298 0 0)
(-0.0138157404813374 0 0)
(-0.02948947350411575 0 0)
(-0.0549949081626158 0 0)
(-0.07145154874828202 0 0)
(-0.05992694602985271 0 0)
(-0.02568247019559555 0 0)
(0.02196506684667915 0 0)
(0.07231313848994923 0 0)
(0.1082420027009079 0 0)
(0.101751033665947 0 0)
(0.08238327843615967 0 0)
(0.06404196579317682 0 0)
(0.06733608643589177 0 0)
(0.09155404277187137 0 0)
(0.1215442982573108 0 0)
(0.1504288080444546 0 0)
(0.1583924818874579 0 0)
(0.1484420305554874 0 0)
(0.1231847623908652 0 0)
(0.09987847708537893 0 0)
(0.08500374584877185 0 0)
(0.0838035711708138 0 0)
(0.09093279546272683 0 0)
(0.09023788560195721 0 0)
(0.07510219934888433 0 0)
(0.05145861160522814 0 0)
(0.02970622947577934 0 0)
(-0.001490996496846789 0 0)
(-0.01834016753414063 0 0)
(-0.02585187643173817 0 0)
(-0.02647976264995586 0 0)
(-0.04391036906825999 0 0)
(-0.07219987852850605 0 0)
(-0.09197429213154756 0 0)
(-0.09855261010384059 0 0)
(-0.09149977934459734 0 0)
(-0.08360939596532682 0 0)
(-0.08977265115552406 0 0)
(-0.1096062151198696 0 0)
(-0.1356307307110296 0 0)
(-0.1722624165674394 0 0)
(-0.1884935208939796 0 0)
(-0.1680737280908996 0 0)
(-0.1264632768645337 0 0)
(-0.07332830690466217 0 0)
(-0.03185187105894917 0 0)
(-0.01598248540359509 0 0)
(-0.03364323142195001 0 0)
(-0.06927006614165666 0 0)
(-0.0905608194257784 0 0)
(-0.07100493099520064 0 0)
(-0.02797616222039195 0 0)
(0.02841637792225352 0 0)
(0.07161430100543005 0 0)
(0.0950769158961722 0 0)
(0.0856456724932428 0 0)
(0.05624024071491604 0 0)
(0.04056712779624772 0 0)
(0.04885645289799693 0 0)
(0.0791770933782128 0 0)
(0.1372553724877217 0 0)
(0.1896237853768319 0 0)
(0.2204652460538816 0 0)
(0.220958826820371 0 0)
(0.1844553433509313 0 0)
(0.1164560002684352 0 0)
(0.05948615907839131 0 0)
(0.02080386244693216 0 0)
(0.01063398907170068 0 0)
(0.02149976241644005 0 0)
(0.06166578099698952 0 0)
(0.08788460771102014 0 0)
(0.09420426722127176 0 0)
(0.09019349121335164 0 0)
(0.04266577025946081 0 0)
(-0.02122203522526279 0 0)
(-0.06433831376802515 0 0)
(-0.09371117382634742 0 0)
(-0.08340719109900004 0 0)
(-0.06785435129684819 0 0)
(-0.05836343105342972 0 0)
(-0.07707969398439474 0 0)
(-0.1064968711455985 0 0)
(-0.1470337155150248 0 0)
(-0.1755076162506261 0 0)
(-0.1734625074388609 0 0)
(-0.1422888537622578 0 0)
(-0.1075267193084481 0 0)
(-0.07322207167298068 0 0)
(-0.07242588702324687 0 0)
(-0.09315761470784494 0 0)
(-0.1292820547912809 0 0)
(-0.1499436937344716 0 0)
(-0.133723027741106 0 0)
(-0.0806032640513961 0 0)
(-0.01304126163161945 0 0)
(0.0497150478355198 0 0)
(0.07239438699144915 0 0)
(0.04794657330672345 0 0)
(0.007103604928816763 0 0)
(-0.02584578336046421 0 0)
(-0.01895202301443667 0 0)
(0.02677181725319701 0 0)
(0.09718738080512969 0 0)
(0.1657978632914762 0 0)
(0.1965490249103083 0 0)
(0.1737617001108471 0 0)
(0.1440406065815545 0 0)
(0.08878546418435947 0 0)
(0.06495712900220363 0 0)
(0.08146189477137576 0 0)
(0.09781967010226299 0 0)
(0.142790298735656 0 0)
(0.1720928935579913 0 0)
(0.1676311681205511 0 0)
(0.1278848565404083 0 0)
(0.08747131929795619 0 0)
(0.02197330378524152 0 0)
(-0.0110045980763659 0 0)
(-0.02274989427901068 0 0)
(-0.0199740111712064 0 0)
(0.0008107938780309445 0 0)
(0.01291831842960506 0 0)
(-0.001604186304664902 0 0)
(-0.02839681375453525 0 0)
(-0.05527813366413974 0 0)
(-0.1053527989255706 0 0)
(-0.1489809186049243 0 0)
(-0.1725264592172225 0 0)
(-0.1804425362241127 0 0)
(-0.152595147289196 0 0)
(-0.09844100566561712 0 0)
(-0.06944754963595089 0 0)
(-0.04421012807473721 0 0)
(-0.03990429413314724 0 0)
(-0.0738208991054423 0 0)
(-0.1718557254186039 0 0)
(-0.233983617334603 0 0)
(-0.2637148127549426 0 0)
(-0.2384380837725255 0 0)
(-0.1335267747451306 0 0)
(0.02535295272260779 0 0)
(0.1450580568245398 0 0)
(0.2106763919262318 0 0)
(0.2096492311693289 0 0)
(0.1350271663586926 0 0)
(-0.03893381610597055 0 0)
(-0.157947796033094 0 0)
(-0.1940285691081721 0 0)
(-0.1484273963765647 0 0)
(-0.06920657592788251 0 0)
(0.132108900728609 0 0)
(0.349248628263627 0 0)
(0.4330279424595749 0 0)
(0.4216607635366264 0 0)
(0.3928519785497528 0 0)
(0.2800771965078433 0 0)
(0.0354595654377417 0 0)
(-0.1497320456355121 0 0)
(-0.2147229968662937 0 0)
(-0.2474567864639441 0 0)
(-0.2383989812135716 0 0)
(-0.09897198845519267 0 0)
(0.2172377363167512 0 0)
(0.4277812852041837 0 0)
(0.4931690729300304 0 0)
(0.5045079604274485 0 0)
(0.4626846146785014 0 0)
(0.2142957112736912 0 0)
(-0.2431407765299435 0 0)
(-0.5857958528902363 0 0)
(-0.7285291277608789 0 0)
(-0.7425990098287161 0 0)
(-0.6753006421647469 0 0)
(-0.4323164385160999 0 0)
(0.05344004426945616 0 0)
(0.4006777731811104 0 0)
(0.528979742236122 0 0)
(0.5282216597724303 0 0)
(0.461424664124015 0 0)
(0.3586672669791487 0 0)
(-0.005090429265821069 0 0)
(-0.4669127077686723 0 0)
(-0.6846190686168794 0 0)
(-0.7191729995578811 0 0)
(-0.7591637576949783 0 0)
(-0.7772567067992222 0 0)
(-0.6741609988009593 0 0)
(-0.1566905856308747 0 0)
(0.4368328890746598 0 0)
(0.7686801366488815 0 0)
(0.9688496035544258 0 0)
(1.106625580304585 0 0)
(1.143712508010509 0 0)
(0.8503999530927262 0 0)
(0.111812636919017 0 0)
(-0.4848883147620696 0 0)
(-0.7189063550598336 0 0)
(-0.7384963948402962 0 0)
(-0.6165440110358313 0 0)
(-0.3234698457410736 0 0)
(0.1918137167932502 0 0)
(0.4893619429955827 0 0)
(0.5391714721243538 0 0)
(0.4657555372567927 0 0)
(0.398112495914328 0 0)
(0.2511986579840412 0 0)
(0.122185180271467 0 0)
(0.08193023757859635 0 0)
(0.04312346217206713 0 0)
(-0.01140558045230555 0 0)
(-0.08472979727361887 0 0)
(-0.239617519411159 0 0)
(-0.3745704816084893 0 0)
(-0.5380621190272379 0 0)
(-0.5742016063082332 0 0)
(-0.4746782166164047 0 0)
(-0.3382638945194262 0 0)
(-0.005449441529710554 0 0)
(0.2833623179179873 0 0)
(0.3899857524911223 0 0)
(0.2913863456597559 0 0)
(0.1964926172688047 0 0)
(-0.02244255939430216 0 0)
(-0.2519111145112337 0 0)
(-0.3389605888811961 0 0)
(-0.2651424306494605 0 0)
(-0.1904028525444739 0 0)
(-0.09251798117168696 0 0)
(-0.04444614444658147 0 0)
(-0.06407659192888303 0 0)
(-0.1597157095793488 0 0)
(-0.258144528953787 0 0)
(-0.330986340140266 0 0)
(-0.2786715119629304 0 0)
(-0.04762585969447586 0 0)
(0.2626913366073731 0 0)
(0.6088441553528373 0 0)
(0.7850279327856753 0 0)
(0.7816103806385807 0 0)
(0.6189190934940337 0 0)
(0.2762046143293921 0 0)
(-0.273523656150629 0 0)
(-0.5720297276735441 0 0)
(-0.6335998687141452 0 0)
(-0.4863111256779026 0 0)
(-0.2612848092947408 0 0)
(0.1883035073918125 0 0)
(0.5213588046823171 0 0)
(0.6267220815469797 0 0)
(0.546534024969854 0 0)
(0.3711252599281376 0 0)
(0.1328862502919067 0 0)
(-0.07111182770216136 0 0)
(-0.1126249723087853 0 0)
(-0.0257476381018739 0 0)
(0.09834364689111898 0 0)
(0.1570096377367641 0 0)
(0.08123109315666392 0 0)
(-0.1286002077708598 0 0)
(-0.3860226743486836 0 0)
(-0.6190811679701995 0 0)
(-0.7355336275652866 0 0)
(-0.6978238329656583 0 0)
(-0.3633236787761041 0 0)
(0.1248614702320472 0 0)
(0.4630855480690335 0 0)
(0.5957978890785668 0 0)
(0.5265039055359035 0 0)
(0.2820805393466322 0 0)
(-0.1282532317813187 0 0)
(-0.4285473497047138 0 0)
(-0.5559297985862998 0 0)
(-0.5309276967719712 0 0)
(-0.407120713385115 0 0)
(-0.2260382218205983 0 0)
(-0.1120681676352665 0 0)
(-0.03161914861213797 0 0)
(-0.04094575035486602 0 0)
(-0.0308496009696921 0 0)
(0.03418069501456936 0 0)
(0.04504413481332081 0 0)
(0.1907386138568745 0 0)
(0.3569006962549401 0 0)
(0.4552896532584164 0 0)
(0.4354194130295813 0 0)
(0.4521074059116738 0 0)
(0.2852225623300976 0 0)
(-0.02933522940878405 0 0)
(-0.2513672958927096 0 0)
(-0.2542153286659073 0 0)
(-0.3050567655558495 0 0)
(-0.1907694562220363 0 0)
(0.02207703479035234 0 0)
(0.2210211843468781 0 0)
(0.2589196532014995 0 0)
(0.3616856652394073 0 0)
(0.3324799177959317 0 0)
(0.298679124283291 0 0)
(0.2514731931893509 0 0)
(0.1737147461127537 0 0)
(0.1381620169419643 0 0)
(0.0802030499056724 0 0)
(-0.01856795600620235 0 0)
(-0.1002554517725624 0 0)
(-0.2525734968338225 0 0)
(-0.4463161123758233 0 0)
(-0.5511507285034071 0 0)
(-0.5086355254583833 0 0)
(-0.5118440509690401 0 0)
(-0.3101430469146537 0 0)
(0.0545252867912085 0 0)
(0.3111335664083513 0 0)
(0.327293390050904 0 0)
(0.3172622614629205 0 0)
(0.1823033287718697 0 0)
(-0.06027986025657198 0 0)
(-0.2545056348034218 0 0)
(-0.255958848730067 0 0)
(-0.3181085735594419 0 0)
(-0.2729403293815844 0 0)
(-0.2329717494584545 0 0)
(-0.192068787677817 0 0)
(-0.1360278486369892 0 0)
(-0.1025159752868007 0 0)
(-0.08812043552914814 0 0)
(-0.08102925319619037 0 0)
(-0.1302142474060519 0 0)
(-0.07938642869238001 0 0)
(0.1571058278801658 0 0)
(0.4636911493911824 0 0)
(0.7281040650353006 0 0)
(0.8857714479740456 0 0)
(0.8628068254050546 0 0)
(0.4034157467601057 0 0)
(-0.1858621256760244 0 0)
(-0.5913603951886465 0 0)
(-0.8355736128827407 0 0)
(-0.8290935370680617 0 0)
(-0.4470786923512985 0 0)
(0.1077835553758776 0 0)
(0.5713392356397867 0 0)
(0.8632799526864631 0 0)
(0.8649410672995276 0 0)
(0.6162844116214665 0 0)
(0.2696675413921971 0 0)
(-0.06700281745968729 0 0)
(-0.2712816528368864 0 0)
(-0.2680502019311303 0 0)
(-0.09913144051026318 0 0)
(0.04723177120305723 0 0)
(0.09332199737667238 0 0)
(-0.04627964197443937 0 0)
(-0.2582747231733937 0 0)
(-0.5962044102971626 0 0)
(-0.7672093398133124 0 0)
(-0.7703131247791404 0 0)
(-0.3968512137023236 0 0)
(0.09353074967527558 0 0)
(0.4980380795468614 0 0)
(0.7615182679055325 0 0)
(0.7849301431042233 0 0)
(0.4285519817239392 0 0)
(-0.04326577256514767 0 0)
(-0.4804174286026297 0 0)
(-0.7331484683193888 0 0)
(-0.7683525264003321 0 0)
(-0.5446782115029011 0 0)
(-0.2596121220025763 0 0)
(0.038612878393911 0 0)
(0.192330022616071 0 0)
(0.2039419955488974 0 0)
(0.08118935441362748 0 0)
(-0.07753793887020238 0 0)
(-0.1428142129962598 0 0)
(-0.06927611798811101 0 0)
(0.2134197669189212 0 0)
(0.4789094425837034 0 0)
(0.7065694265974436 0 0)
(0.7963796479202755 0 0)
(0.6730458151086035 0 0)
(0.1520060261468859 0 0)
(-0.3401849528180507 0 0)
(-0.5735417994482047 0 0)
(-0.7363740888737561 0 0)
(-0.6491430209724544 0 0)
(-0.1622963920443969 0 0)
(0.3908092130078404 0 0)
(0.7481583247657426 0 0)
(0.9523800417176664 0 0)
(0.8720754461813099 0 0)
(0.4424710999893314 0 0)
(0.01458439173205193 0 0)
(-0.3342400277828054 0 0)
(-0.4227576765432937 0 0)
(-0.278461116147554 0 0)
(0.002371220752833853 0 0)
(0.2372694919365657 0 0)
(0.2948095514877523 0 0)
(0.1115753216314038 0 0)
(-0.2227803551232011 0 0)
(-0.6240572582970938 0 0)
(-0.858160854489203 0 0)
(-0.9016737996259101 0 0)
(-0.561481258155868 0 0)
(0.03324179953804952 0 0)
(0.5151097503159225 0 0)
(0.9136193783784416 0 0)
(1.021799996260538 0 0)
(0.7590097692909297 0 0)
(0.05342957380830775 0 0)
(-0.4806155127037747 0 0)
(-0.8811399068903762 0 0)
(-1.039476644696758 0 0)
(-0.972919521357042 0 0)
(-0.5408551480460138 0 0)
(-0.1519143958404604 0 0)
(0.2131637353845328 0 0)
(0.359067334857414 0 0)
(0.4569993575031487 0 0)
(0.4993519842308534 0 0)
(0.4558337815292676 0 0)
(0.517063152570456 0 0)
(0.5638720015514329 0 0)
(0.5824716577005901 0 0)
(0.5483257711463541 0 0)
(0.4668934866245809 0 0)
(0.09560138720480332 0 0)
(-0.4753235277255303 0 0)
(-0.7528201544279101 0 0)
(-0.7834704997168547 0 0)
(-0.8155289203032742 0 0)
(-0.4919154737819676 0 0)
(0.1955545061684029 0 0)
(0.6967548342363478 0 0)
(0.9185687132870253 0 0)
(1.109802211422077 0 0)
(0.9774983593703623 0 0)
(0.6120889100735567 0 0)
(0.224019038895892 0 0)
(-0.08077467638346389 0 0)
(-0.2925074084692627 0 0)
(-0.367280154839658 0 0)
(-0.3799818382565421 0 0)
(-0.3839001643446533 0 0)
(-0.2181349574832272 0 0)
(-0.2197739760474156 0 0)
(-0.2194143794334871 0 0)
(-0.2028545584740519 0 0)
(-0.2439877309726842 0 0)
(-0.1394964181553001 0 0)
(0.07123646100873955 0 0)
(0.3527316158348704 0 0)
(0.4817059856041379 0 0)
(0.6672746333733017 0 0)
(0.6535213355954725 0 0)
(0.4009838564856973 0 0)
(-0.1693610321884341 0 0)
(-0.547423790736702 0 0)
(-0.9066259722747844 0 0)
(-1.006849393820179 0 0)
(-0.8831497348544247 0 0)
(-0.3877471732928476 0 0)
(0.01437116162095232 0 0)
(0.4458151851370233 0 0)
(0.645447672838472 0 0)
(0.7731734614192761 0 0)
(0.7947578499598335 0 0)
(0.622045034687553 0 0)
(0.5446070474450863 0 0)
(0.4980075807534817 0 0)
(0.5348784815184587 0 0)
(0.5792101217201872 0 0)
(0.4230371730827224 0 0)
(-0.1514923902420642 0 0)
(-0.701036048440675 0 0)
(-1.080674790632864 0 0)
(-1.253236041972209 0 0)
(-1.005574291049806 0 0)
(-0.07164324518933365 0 0)
(0.9121996613821997 0 0)
(1.542685605928075 0 0)
(1.811401281785151 0 0)
(1.551843359763562 0 0)
(0.7899562848717935 0 0)
(-0.1015850656527796 0 0)
(-0.7516536882573955 0 0)
(-0.9732743628559388 0 0)
(-0.7142481949330965 0 0)
(-0.1824589814219008 0 0)
(0.3705106927696166 0 0)
(0.6846548013381726 0 0)
(0.5931664693522306 0 0)
(0.09727169802296927 0 0)
(-0.4980807719410782 0 0)
(-0.9120480866960805 0 0)
(-0.9329389455101309 0 0)
(-0.4246892005322315 0 0)
(0.4060645499194389 0 0)
(1.150252920182581 0 0)
(1.57509173355846 0 0)
(1.466418397958977 0 0)
(0.8002183036999168 0 0)
(-0.3143203003137455 0 0)
(-1.317268552660527 0 0)
(-1.800421679804088 0 0)
(-1.568507570335552 0 0)
(-0.8726842252664585 0 0)
(0.1712743127018962 0 0)
(1.131585474953541 0 0)
(1.571154417232191 0 0)
(1.399826624604993 0 0)
(0.8672243690620935 0 0)
(0.1926992968124332 0 0)
(-0.3800679143057566 0 0)
(-0.5750656442105755 0 0)
(-0.303829194002453 0 0)
(0.2591075297680178 0 0)
(0.8484468738264915 0 0)
(1.149643811343587 0 0)
(0.9444642148494322 0 0)
(0.3890396638571933 0 0)
(-0.2562816685017834 0 0)
(-0.7901367766048305 0 0)
(-1.018665829165955 0 0)
(-0.7473528406587115 0 0)
(0.03650164393632533 0 0)
(0.8435869394619294 0 0)
(1.515747987649025 0 0)
(1.732763191175945 0 0)
(1.457468334360423 0 0)
(0.6984949852470838 0 0)
(0.001601649027379179 0 0)
(-0.577318199996953 0 0)
(-0.7874840706306714 0 0)
(-0.690335494192988 0 0)
(-0.3315017324137932 0 0)
(0.2248486534449578 0 0)
(0.5353949576230369 0 0)
(0.5899714712233897 0 0)
(0.3017751962153121 0 0)
(-0.1236861673629412 0 0)
(-0.4700403194479405 0 0)
(-0.600691839016256 0 0)
(-0.3648011063072793 0 0)
(0.144069768549778 0 0)
(0.696358172172666 0 0)
(1.083989556820634 0 0)
(1.14196707297284 0 0)
(0.7235679672826547 0 0)
(0.07834332567381842 0 0)
(-0.5659437777863247 0 0)
(-0.9725767903955489 0 0)
(-1.06061995903758 0 0)
(-0.7192273582401945 0 0)
(-0.2258570783231748 0 0)
(0.4552003823139218 0 0)
(0.78133067493482 0 0)
(0.948378778392283 0 0)
(0.8739873854945409 0 0)
(0.6541151983479222 0 0)
(0.4271733584746192 0 0)
(0.3263904325834308 0 0)
(0.4414909488529556 0 0)
(0.6422758213149437 0 0)
(0.8932100984217238 0 0)
(0.8850295733202297 0 0)
(0.3217454747559398 0 0)
(-0.4963431385784753 0 0)
(-1.083866426326107 0 0)
(-1.156973319580946 0 0)
(-0.7339622966288736 0 0)
(0.1743244859461682 0 0)
(1.275095335339111 0 0)
(1.988816849795759 0 0)
(2.1189392413659 0 0)
(1.628608868440245 0 0)
(0.7115062255375354 0 0)
(-0.4274835163296803 0 0)
(-1.222537323923243 0 0)
(-1.347611055491251 0 0)
(-0.8865971157296844 0 0)
(-0.02991248846035764 0 0)
(0.7914872225040286 0 0)
(1.307031742164497 0 0)
(1.261784598126579 0 0)
(0.6962201317458153 0 0)
(-0.111837232181052 0 0)
(-0.8329649525265471 0 0)
(-1.191787162263394 0 0)
(-0.972390880188876 0 0)
(-0.1696286075654749 0 0)
(0.8006841218366111 0 0)
(1.526105392780535 0 0)
(1.688523896170654 0 0)
(1.252348051976072 0 0)
(0.2575941829586478 0 0)
(-0.7571397040704307 0 0)
(-1.293620138754294 0 0)
(-1.190759601171904 0 0)
(-0.6651943611290322 0 0)
(0.2017524552530301 0 0)
(1.018589021233321 0 0)
(1.326936084953716 0 0)
(1.083853398623976 0 0)
(0.5083233751974637 0 0)
(-0.1079364466237026 0 0)
(-0.4662148129739727 0 0)
(-0.2874716035629215 0 0)
(0.3625587394444509 0 0)
(1.121633077076787 0 0)
(1.678534293803741 0 0)
(1.718996362911746 0 0)
(1.148701261798911 0 0)
(0.1540457065246648 0 0)
(-0.8338170455398062 0 0)
(-1.36048974177232 0 0)
(-1.20651040619229 0 0)
(-0.5186383081261496 0 0)
(0.6241229951581098 0 0)
(1.671443726740632 0 0)
(2.113766520351181 0 0)
(1.85568024343407 0 0)
(1.177436217364418 0 0)
(0.1300161964464334 0 0)
(-0.7487570703297368 0 0)
(-0.9880573117185412 0 0)
(-0.5726849471223217 0 0)
(0.1070875396968006 0 0)
(0.8914629239204561 0 0)
(1.370444013271151 0 0)
(1.217172596037628 0 0)
(0.6375961891083406 0 0)
(-0.1944608385120903 0 0)
(-0.9432804215889904 0 0)
(-1.385378363763328 0 0)
(-1.300135540826517 0 0)
(-0.6056561942358542 0 0)
(0.2898602049044758 0 0)
(1.165996939175338 0 0)
(1.738258507030645 0 0)
(1.854403191945602 0 0)
(1.358675386754557 0 0)
(0.4966054861196366 0 0)
(-0.3247983089592014 0 0)
(-0.9371449557393033 0 0)
(-1.167332183174002 0 0)
(-0.9666801806273022 0 0)
(-0.3624691841081937 0 0)
(0.2450484337667958 0 0)
(0.7613478449395512 0 0)
(0.8791394648688551 0 0)
(0.8559546224424796 0 0)
(0.7759670140380547 0 0)
(0.8045885988466654 0 0)
(0.8023833640788726 0 0)
(1.011251941191906 0 0)
(1.179084366916413 0 0)
(1.07882551871729 0 0)
(0.6490400600228657 0 0)
(0.2470206295176591 0 0)
(-0.4843950261107094 0 0)
(-0.9515726870523382 0 0)
(-0.9972407945072177 0 0)
(-0.4845378983735954 0 0)
(0.1723258131650168 0 0)
(1.215823651056484 0 0)
(1.968595146839295 0 0)
(2.146099415429289 0 0)
(1.662877976209546 0 0)
(0.8641583829932371 0 0)
(-0.07123806759657304 0 0)
(-0.8766736856872905 0 0)
(-1.096696089847829 0 0)
(-0.7008732939119019 0 0)
(0.1127062307798786 0 0)
(0.8735582127710357 0 0)
(1.466740356483425 0 0)
(1.444157696940073 0 0)
(0.874594830246352 0 0)
(-0.1413014752947069 0 0)
(-0.8292397916175009 0 0)
(-1.257400192197198 0 0)
(-1.019941557485998 0 0)
(-0.1667389876033494 0 0)
(0.7957562985635438 0 0)
(1.661791445547691 0 0)
(1.981050628604376 0 0)
(1.708711216712453 0 0)
(0.9286234507389886 0 0)
(-0.1511377726215747 0 0)
(-0.9977671403021616 0 0)
(-1.182760472089899 0 0)
(-0.7591982630552869 0 0)
(-0.1999123314474257 0 0)
(0.6635217512992138 0 0)
(1.016020104835401 0 0)
(0.8635076758583073 0 0)
(0.8164217012352496 0 0)
(0.5620929957171346 0 0)
(0.5140721243419065 0 0)
(0.7457353371291843 0 0)
(0.7986371997735541 0 0)
(1.047578193794431 0 0)
(1.037904323069483 0 0)
(0.7412472974564096 0 0)
(0.479771194935098 0 0)
(-0.02710298320318628 0 0)
(-0.2932641045659205 0 0)
(-0.185347596081662 0 0)
(0.2053900255232196 0 0)
(0.600557955890469 0 0)
(1.112781704800793 0 0)
(1.316545315799059 0 0)
(1.157189233085983 0 0)
(0.7395651724884603 0 0)
(0.3528470251796272 0 0)
(-0.1244034004625138 0 0)
(-0.2845652274003548 0 0)
(-0.02231532882755867 0 0)
(0.5838448156041464 0 0)
(0.9174205657982538 0 0)
(1.386974336037634 0 0)
(1.311421619789973 0 0)
(0.7565554636180997 0 0)
(-0.1215517518299942 0 0)
(-0.6258257757340943 0 0)
(-1.094522388678708 0 0)
(-1.00770685134052 0 0)
(-0.3956778354121555 0 0)
(0.4432793543164293 0 0)
(1.334653714375203 0 0)
(1.839520928120076 0 0)
(1.778605012630866 0 0)
(1.17622871666858 0 0)
(0.6063775764262508 0 0)
(-0.359573246592072 0 0)
(-0.7993030784473746 0 0)
(-0.7208126486420133 0 0)
(-0.2312656289317362 0 0)
(0.3092905434368832 0 0)
(0.9480268793983563 0 0)
(1.209288306759208 0 0)
(1.038965477465594 0 0)
(0.4690724523574755 0 0)
(-0.01633228151524751 0 0)
(-0.4822009379685259 0 0)
(-0.488733615143272 0 0)
(-0.04780628808799467 0 0)
(0.9121780036121622 0 0)
(1.734082435000359 0 0)
(2.473067627633458 0 0)
(2.674923660525341 0 0)
(2.224458290013813 0 0)
(1.111103874746435 0 0)
(-0.2564750002921523 0 0)
(-1.331613298357425 0 0)
(-1.815401979510696 0 0)
(-1.577371562167034 0 0)
(-0.7788431602395103 0 0)
(0.4236969645484329 0 0)
(1.659807229913592 0 0)
(2.467592969057689 0 0)
(2.697325274070211 0 0)
(2.323181259419256 0 0)
(1.478742122824849 0 0)
(0.5874813721019664 0 0)
(-0.06896068356683678 0 0)
(-0.339844356492729 0 0)
(-0.2992343003226192 0 0)
(-0.01127699611224219 0 0)
(0.2205479723337713 0 0)
(0.1839494773054899 0 0)
(-0.1134391704460242 0 0)
(-0.44638737213752 0 0)
(-0.6524526863610605 0 0)
(-0.421225888662981 0 0)
(0.2372050641394857 0 0)
(1.147505519561274 0 0)
(1.920081617162443 0 0)
(2.295145366451961 0 0)
(2.072192340208547 0 0)
(1.219071770940926 0 0)
(0.02593609155785006 0 0)
(-0.9937473050794364 0 0)
(-1.458856264525887 0 0)
(-1.263586923599745 0 0)
(-0.4715066285417938 0 0)
(0.6264489835113985 0 0)
(1.611325706734623 0 0)
(2.140974327485536 0 0)
(2.082724923034088 0 0)
(1.427270179012751 0 0)
(0.5187823972829037 0 0)
(-0.285511185976365 0 0)
(-0.5696985831654773 0 0)
(-0.3054722918948136 0 0)
(0.3540471002980984 0 0)
(1.108299056786815 0 0)
(1.840445873902238 0 0)
(1.889940138331662 0 0)
(1.601978034185812 0 0)
(0.9445471344350012 0 0)
(0.4111056716074435 0 0)
(-0.2967745174986758 0 0)
(-0.4798878655164812 0 0)
(-0.2017073479372209 0 0)
(0.3568081573893567 0 0)
(0.9071721428909038 0 0)
(1.421439135347745 0 0)
(1.625497529769971 0 0)
(1.427175794250253 0 0)
(1.108153948513804 0 0)
(0.6106158542356133 0 0)
(0.3982820785679839 0 0)
(0.305088798986336 0 0)
(0.3669489701384973 0 0)
(0.4798085354998583 0 0)
(0.4600533327632857 0 0)
(0.2334516767623066 0 0)
(-0.1310888415627098 0 0)
(-0.3727658500632579 0 0)
(-0.3089781801924723 0 0)
(0.0787192112895984 0 0)
(0.5499545571704528 0 0)
(1.16501468553612 0 0)
(1.40861124560894 0 0)
(1.414291802489115 0 0)
(1.187378791109176 0 0)
(1.024734747539533 0 0)
(0.5476231399715888 0 0)
(0.1626011660304711 0 0)
(0.02772761190727577 0 0)
(-0.01069039445166208 0 0)
(-0.001803296519672523 0 0)
(0.2120534738241618 0 0)
(0.4494660647053114 0 0)
(0.5590889239664395 0 0)
(0.6339940138282384 0 0)
(0.7203952894421175 0 0)
(0.8180691864476304 0 0)
(0.9480349048339095 0 0)
(1.254915971872464 0 0)
(1.553287945248446 0 0)
(1.795187497824167 0 0)
(1.761573905889649 0 0)
(1.474146969646978 0 0)
(0.8279591386993091 0 0)
(0.1236061293969709 0 0)
(-0.6317442285225839 0 0)
(-0.8922960655658914 0 0)
(-0.6462566542524246 0 0)
(0.06893495763446958 0 0)
(1.011868639105305 0 0)
(1.915790254624487 0 0)
(2.424944656595172 0 0)
(2.330975074665774 0 0)
(1.784724688255282 0 0)
(0.9305984827296531 0 0)
(0.1720912558710222 0 0)
(-0.2661636412880747 0 0)
(-0.1861544216731952 0 0)
(0.2366815778385827 0 0)
(0.7307660196149757 0 0)
(1.001411018902371 0 0)
(0.8902549181474578 0 0)
(0.39330857986575 0 0)
(-0.1334036675194086 0 0)
(-0.4850152588453139 0 0)
(-0.413187481371887 0 0)
(0.1245285334923202 0 0)
(0.9625498513970865 0 0)
(1.772851499031835 0 0)
(2.21807610319921 0 0)
(2.196354685418894 0 0)
(1.551549074759601 0 0)
(0.4744523172124935 0 0)
(-0.4645178325540263 0 0)
(-0.9561870551171954 0 0)
(-0.9509479656131572 0 0)
(-0.3663734855886367 0 0)
(0.6001275958755276 0 0)
(1.505356676677106 0 0)
(2.01881338992268 0 0)
(2.154708376371203 0 0)
(1.717387200301803 0 0)
(0.9032399560176831 0 0)
(0.1415123291633366 0 0)
(-0.1888124586772857 0 0)
(-0.09414098647929031 0 0)
(0.4016043752253894 0 0)
(1.133413002534049 0 0)
(1.887458875454876 0 0)
(1.941677835454631 0 0)
(1.677382314063662 0 0)
(1.143135776853437 0 0)
(0.5150620300130562 0 0)
(-0.1664421935591028 0 0)
(-0.2558392593250836 0 0)
(-0.04239310823480917 0 0)
(0.5404751992002458 0 0)
(1.116445139253077 0 0)
(1.77755292850741 0 0)
(2.020870262721488 0 0)
(1.802359501230838 0 0)
(1.378848692596159 0 0)
(0.8443986463111011 0 0)
(0.4366313414818943 0 0)
(0.2568685104582058 0 0)
(0.4155990151668252 0 0)
(0.6828466661053509 0 0)
(0.8858050906228003 0 0)
(0.9098594418500858 0 0)
(0.6441380767207444 0 0)
(0.2297053030919486 0 0)
(-0.08405152504586526 0 0)
(-0.1653924304551193 0 0)
(0.1789423299013068 0 0)
(0.8627005182493909 0 0)
(1.667173395070997 0 0)
(2.158562299437686 0 0)
(2.182908394479595 0 0)
(1.779685415532729 0 0)
(1.049517398782714 0 0)
(0.139239511880819 0 0)
(-0.4952838431684584 0 0)
(-0.5605073233346467 0 0)
(-0.1917991184493939 0 0)
(0.4506401503233306 0 0)
(1.21835421803245 0 0)
(1.787206854477019 0 0)
(1.947352588533869 0 0)
(1.694957392867369 0 0)
(1.213933064364453 0 0)
(0.7298153362540829 0 0)
(0.4243740470944389 0 0)
(0.4561660438202954 0 0)
(0.8856879029284922 0 0)
(1.516944253205338 0 0)
(1.977657801416412 0 0)
(2.133462251000355 0 0)
(1.860700184906562 0 0)
(1.192751331672242 0 0)
(0.3392525140767456 0 0)
(-0.1202816180479036 0 0)
(-0.1581247334421624 0 0)
(0.1485663741863188 0 0)
(0.7284202462899813 0 0)
(1.484322052356887 0 0)
(1.950483884474838 0 0)
(1.960426026730224 0 0)
(1.688371866674806 0 0)
(1.246188254492729 0 0)
(0.7322335929690645 0 0)
(0.4711243190034975 0 0)
(0.5222358820557458 0 0)
(0.7250052248557061 0 0)
(0.9659898918050227 0 0)
(1.101590802838735 0 0)
(0.9708536093734965 0 0)
(0.590809181247947 0 0)
(0.102864178294577 0 0)
(-0.1366480695024083 0 0)
(-0.07719574529667314 0 0)
(0.2701828489853387 0 0)
(0.877681509336029 0 0)
(1.589078556919275 0 0)
(1.927107033422869 0 0)
(1.873748904900868 0 0)
(1.515759528787978 0 0)
(0.9138030177244942 0 0)
(0.2498254649102454 0 0)
(-0.08685302477058769 0 0)
(-0.06286381388168673 0 0)
(0.2450012986662353 0 0)
(0.7169968848468911 0 0)
(1.210452688591843 0 0)
(1.467725080676116 0 0)
(1.436286788297995 0 0)
(1.221767535721798 0 0)
(0.9282499645238946 0 0)
(0.7632808731833954 0 0)
)
;

boundaryField
{
    inlet
    {
        type            zeroGradient;
    }
    outlet
    {
        type            pressureInletOutletVelocity;
        value           uniform (0.7632808731833954 0 0);
    }
    frontAndBack
    {
        type            empty;
    }
}


// ************************************************************************* //
