/*--------------------------------*- C++ -*----------------------------------*\
| =========                 |                                                 |
| \\      /  F ield         | OpenFOAM: The Open Source CFD Toolbox           |
|  \\    /   O peration     | Version:  v2012                                 |
|   \\  /    A nd           | Website:  www.openfoam.com                      |
|    \\/     M anipulation  |                                                 |
\*---------------------------------------------------------------------------*/
FoamFile
{
    version     2.0;
    format      ascii;
    class       volScalarField;
    location    "0.003";
    object      p;
}
// * * * * * * * * * * * * * * * * * * * * * * * * * * * * * * * * * * * * * //

dimensions      [1 -1 -2 0 0 0 0];


internalField   nonuniform List<scalar> 
1000
(
101310.9361791751
101313.5693466836
101306.8331687678
101301.5424576811
101295.7138240556
101290.4734097384
101285.9473123051
101282.068837224
101278.7478791564
101276.5343977626
101275.9568779248
101275.9705128666
101276.3388291907
101277.3502654442
101279.326646885
101282.3306710391
101286.2484999306
101290.9019194016
101296.1444627206
101301.8752040055
101308.0104362432
101314.4591213231
101321.114851718
101327.8555467101
101334.5463815367
101341.051140561
101347.2541988214
101353.0863514727
101358.538778317
101363.6221132863
101368.1799344016
101371.5650364494
101373.0168014209
101373.1851351655
101373.1117371937
101372.8491608673
101372.1071658212
101370.6538910642
101368.2802011527
101364.8909352205
101360.5257742701
101355.3379923319
101349.5317887264
101343.2985977993
101336.7872221722
101330.1111745413
101323.3707529775
101316.6682820082
101310.108249344
101303.7797528135
101297.7275624209
101291.9495848805
101286.4972102956
101281.7445686428
101278.5844252578
101277.508710448
101277.4355363821
101277.4763583612
101277.737491088
101278.3800551999
101279.6297861964
101281.6778535311
101284.6605247972
101288.6213169897
101293.4989556309
101299.1415200669
101305.3447604499
101311.8994363313
101318.6266121467
101325.3884692821
101332.0820470009
101338.6350702013
101345.0113879257
101351.2094831269
101357.2233822295
101362.9249967199
101367.8263662484
101370.9821014678
101372.0198301064
101372.0956463059
101372.0390356158
101371.8337004557
101371.2869067544
101370.2242717297
101368.4604902676
101365.8446593282
101362.2864849136
101357.7800798167
101352.4100391979
101346.3371410476
101339.7686979393
101332.9220296893
101325.9891795818
101319.1113982534
101312.3701409738
101305.7938265305
101299.3771882529
101293.1318684064
101287.2294006191
101282.2701548473
101279.2683175793
101278.3939952386
101278.3496612017
101278.3859371586
101278.5940674851
101279.0994050668
101280.078251179
101281.6960532015
101284.0981843926
101287.3841799051
101291.5882352288
101296.6662356237
101302.496540324
101308.8982789109
101315.662754042
101322.5878366355
101329.5079376516
101336.3163424385
101342.9732701329
101349.4857353268
101355.8409937173
101361.8634439316
101366.9742650266
101370.1781905772
101371.2034074099
101371.2816903798
101371.2391327899
101371.0811000143
101370.654008247
101369.8141670924
101368.4015954761
101366.2698071121
101363.3029170462
101359.4363972562
101354.6721984829
101349.0850021535
101342.8173224796
101336.0610279635
101329.0251366218
101321.8976161193
101314.8152120723
101307.8525673032
101301.0379474576
101294.4157248211
101288.2054773788
101283.0653595388
101280.0145449025
101279.1360380151
101279.0863429924
101279.1136710685
101279.2776607817
101279.6850624251
101280.4835244899
101281.8173850656
101283.8234027398
101286.6128369871
101290.2555385306
101294.7647252849
101300.0881470615
101306.1105703763
101312.6681247653
101319.5716178127
101326.6363205394
101333.7138440085
101340.7135058808
101347.5935051647
101354.3009402918
101360.6305089249
101365.9862414326
101369.3701418972
101370.4956380599
101370.5958172738
101370.5649826809
101370.4466292549
101370.1098120029
101369.4317460832
101368.2708022013
101366.4908014071
101363.9722526457
101360.6282279987
101356.418143148
101351.3582185513
101345.5264135106
101339.0575759536
101332.1250745545
101324.9117098871
101317.5796387459
101310.2504735591
101303.0086524042
101295.9558842803
101289.3677846246
101283.9492748571
101280.7325720117
101279.7793334154
101279.7139906842
101279.7345398625
101279.8653383111
101280.197522428
101280.8592450802
101281.9788042452
101283.6833371845
101286.0849485337
101289.2682050905
101293.2767562078
101298.103114364
101303.6852603138
101309.9111195145
101316.6307255572
101323.6770686982
101330.8939055682
101338.1593673779
101345.3857419302
101352.4720493704
101359.1748906839
101364.8777228522
101368.5609354389
101369.8635459517
101370.0022569528
101369.9806283455
101369.8911908312
101369.6223080418
101369.0673342603
101368.1001694051
101366.5951857796
101364.4349889618
101361.5230478045
101357.7953386068
101353.2309073147
101347.8598783437
101341.7650130641
101335.0728362536
101327.9352586359
101320.5075001725
101312.9295499245
101305.3239182491
101297.8413868938
101290.8099457205
101284.9861086289
101281.4617090296
101280.3609076446
101280.2695276375
101280.2828015263
101280.3852064147
101280.655843227
101281.2090876213
101282.1597384818
101283.6248414576
101285.7127785867
101288.5137385964
101292.0885183361
101296.4588087167
101301.6016073848
101307.4485612773
101313.8909886842
101320.7929813835
101328.0123316652
101335.4204328819
101342.904589873
101350.330530702
101357.4274933066
101363.5649154178
101367.6809389663
101369.2635719155
101369.4688124134
101369.4551253944
101369.3905172248
101369.1772034455
101368.7215115602
101367.9094720078
101366.6257330096
101364.7581287436
101362.2074811007
101358.8969803716
101354.7817679031
101349.8575530989
101344.165062661
101337.7870867724
101330.8382662292
101323.4507195979
101315.7600347823
101307.9031964022
101300.0594185778
101292.5882504707
101286.2747606485
101282.2850717928
101280.9163315602
101280.7717940027
101280.7798515715
101280.8587631246
101281.0784950214
101281.5415495508
101282.3522483577
101283.6191401021
101285.4460966034
101287.9245926678
101291.1245308172
101295.0859969892
101299.8134619463
101305.2726768241
101311.3913977523
101318.0668975019
101325.1805142509
101332.6122193261
101340.2424316054
101347.9222356052
101355.3740258027
101361.9789214048
101366.6467345268
101368.6484156198
101368.9749379573
101368.9697663981
101368.9266386501
101368.7598921369
101368.3876571875
101367.7051533903
101366.6057333674
101364.9829894703
101362.738445595
101359.7889367332
101356.0747708622
101351.5677409646
101346.2765277925
101340.2471705467
101333.5585627995
101326.3144110632
101318.6341756161
101310.6526189354
101302.5556303465
101294.7034182341
101287.8675904164
101283.2724957329
101281.4880815365
101281.2433983142
101281.2449594767
101281.3026556485
101281.4772791693
101281.8621442643
101282.5532503159
101283.6517676381
101285.2566343515
101287.4583862043
101290.3316695363
101293.928392721
101298.2722174407
101303.3543816685
101309.1321980844
101315.5330094485
101322.4636278904
101329.8198160486
101337.4868994376
101345.316638123
101353.0444017048
101360.0938289317
101365.3892651373
101367.9644540436
101368.5009571768
101368.51394916
101368.487273017
101368.3602564226
101368.0594734458
101367.4880293908
101366.5464602292
101365.1336435413
101363.1530631161
101360.5187124633
101357.1619146752
101353.0381366063
101348.1323584526
101342.4616497256
101336.0744374336
101329.0465999677
101321.4762537575
101313.4854676089
101305.2512188637
101297.109968847
101289.7784245896
101284.4887308998
101282.125402015
101281.7002970636
101281.6936148202
101281.7301789214
101281.8645787431
101282.17921399
101282.764301382
101283.7152432895
101285.1265408789
101287.0867896766
101289.6726973586
101292.9435405959
101296.9361953907
101301.6606735225
101307.0976099979
101313.1999487866
101319.8984656071
101327.1071586375
101334.7228211871
101342.6072335923
101350.5195235049
101357.9431854403
101363.8612142184
101367.1185124987
101367.9790604981
101368.0314374379
101368.0159409271
101367.9224741469
101367.6841560108
101367.2115704609
101366.4138537911
101365.1987605934
101363.4797902178
101361.1828189087
101358.2543082173
101354.670884496
101350.4508397091
101345.6701690816
101340.4918630717
101335.2282324349
101330.4479468235
101326.9861971932
101325.3762026447
101325.0253025263
101325.0003944088
101325.0000009468
101325.0000000009
101325.0000000007
101325.0000000007
101325.0000000008
101325.0000000008
101325.0000000008
101325.0000000009
101325.0000000009
101325.0000000009
101325.0000000009
101325.0000000008
101325.0000000008
101325.0000000007
101325.0000000007
101325.0000000007
101325.0000000006
101325.0000000007
101325.0000000007
101325.0000000006
101325.0000000006
101325.0000000007
101325.0000000006
101325.0000000006
101325.0000000006
101325.0000000006
101325.0000000007
101325.0000000006
101325.0000000007
101325.0000000006
101325.0000000006
101325.0000000006
101325.0000000006
101325.0000000005
101325.0000000005
101325.0000000005
101325.0000000006
101325.0000000006
101325.0000000006
101325.0000000006
101325.0000000005
101325.0000000005
101325.0000000005
101325.0000000004
101325.0000000004
101325.0000000004
101325.0000000003
101325.0000000003
101325.0000000003
101325.0000000002
101325.0000000002
101325.0000000002
101325.0000000002
101325.0000000003
101325.0000000003
101325.0000000003
101325.0000000002
101325.0000000003
101325.0000000003
101325.0000000003
101325.0000000004
101325.0000000004
101325.0000000005
101325.0000000005
101325.0000000006
101325.0000000005
101325.0000000006
101325.0000000006
101325.0000000006
101325.0000000005
101325.0000000005
101325.0000000004
101325.0000000004
101325.0000000004
101325.0000000004
101325.0000000004
101325.0000000004
101325.0000000004
101325.0000000004
101325.0000000005
101325.0000000005
101325.0000000005
101325.0000000005
101325.0000000004
101325.0000000004
101325.0000000004
101325.0000000004
101325.0000000004
101325.0000000003
101325.0000000003
101325.0000000003
101325.0000000003
101325.0000000003
101325.0000000004
101325.0000000004
101325.0000000005
101325.0000000004
101325.0000000005
101325.0000000005
101325.0000000005
101325.0000000005
101325.0000000005
101325.0000000005
101325.0000000005
101325.0000000006
101325.0000000006
101325.0000000007
101325.0000000007
101325.0000000007
101325.0000000007
101325.0000000007
101325.0000000007
101325.0000000007
101325.0000000007
101325.0000000007
101325.0000000007
101325.0000000006
101325.0000000006
101325.0000000006
101325.0000000006
101325.0000000007
101325.0000000006
101325.0000000006
101325.0000000006
101325.0000000006
101325.0000000006
101325.0000000005
101325.0000000005
101325.0000000005
101325.0000000006
101325.0000000005
101325.0000000005
101325.0000000005
101325.0000000005
101325.0000000005
101325.0000000005
101325.0000000005
101325.0000000004
101325.0000000005
101325.0000000005
101325.0000000006
101325.0000000007
101325.0000000007
101325.0000000008
101325.0000000009
101325.0000000009
101325.0000000009
101325.0000000009
101325.0000000009
101325.0000000009
101325.0000000008
101325.0000000008
101325.0000000008
101325.0000000008
101325.0000000008
101325.0000000007
101325.0000000007
101325.0000000007
101325.0000000006
101325.0000000007
101325.0000000006
101325.0000000006
101325.0000000006
101325.0000000005
101325.0000000005
101325.0000000005
101325.0000000006
101325.0000000004
101325.0000000005
101325.0000000005
101325.0000000004
101325.0000000004
101325.0000000005
101325.0000000005
101325.0000000005
101325.0000000005
101325.0000000005
101325.0000000005
101325.0000000006
101325.0000000006
101325.0000000006
101325.0000000007
101325.0000000007
101325.0000000007
101325.0000000007
101325.0000000007
101325.0000000007
101325.0000000007
101325.0000000007
101325.0000000007
101325.0000000007
101325.0000000007
101325.0000000007
101325.0000000007
101325.0000000007
101325.0000000008
101325.0000000007
101325.0000000007
101325.0000000007
101325.0000000007
101325.0000000007
101325.0000000007
101325.0000000007
101325.0000000007
101325.0000000006
101325.0000000007
101325.0000000007
101325.0000000008
101325.0000000008
101325.0000000007
101325.0000000007
101325.0000000007
101325.0000000007
101325.0000000007
101325.0000000007
101325.0000000007
101325.0000000007
101325.0000000007
101325.0000000007
101325.0000000006
101325.0000000006
101325.0000000006
101325.0000000006
101325.0000000007
101325.0000000007
101325.0000000007
101325.0000000008
101325.0000000007
101325.0000000007
101325.0000000007
101325.0000000007
101325.0000000007
101325.0000000007
101325.0000000006
101325.0000000006
101325.0000000006
101325.0000000007
101325.0000000007
101325.0000000007
101325.0000000007
101325.0000000007
101325.0000000007
101325.0000000007
101325.0000000007
101325.0000000007
101325.0000000007
101325.0000000007
101325.0000000006
101325.0000000006
101325.0000000006
101325.0000000006
101325.0000000006
101325.0000000006
101325.0000000006
101325.0000000006
101325.0000000007
101325.0000000007
101325.0000000006
101325.0000000007
101325.0000000007
101325.0000000006
101325.0000000006
101325.0000000007
101325.0000000007
101325.0000000007
101325.0000000008
101325.0000000007
101325.0000000007
101325.0000000007
101325.0000000008
101325.0000000008
101325.0000000008
101325.0000000008
101325.0000000008
101325.0000000008
101325.0000000008
101325.0000000009
101325.0000000009
101325.0000000008
101325.0000000008
101325.0000000007
101325.0000000007
101325.0000000006
101325.0000000006
101325.0000000006
101325.0000000006
101325.0000000006
101325.0000000006
101325.0000000007
101325.0000000008
101325.0000000009
101325.0000000009
101325.0000000009
101325.0000000009
101325.0000000009
101325.000000001
101325.000000001
101325.000000001
101325.000000001
101325.000000001
101325.000000001
101325.000000001
101325.000000001
101325.000000001
101325.000000001
101325.000000001
101325.000000001
101325.0000000009
101325.0000000009
101325.000000001
101325.000000001
101325.0000000011
101325.0000000011
101325.0000000011
101325.000000001
101325.000000001
101325.000000001
101325.000000001
101325.000000001
101325.000000001
101325.000000001
101325.000000001
101325.000000001
101325.000000001
101325.000000001
101325.000000001
101325.000000001
101325.0000000009
101325.0000000009
101325.0000000009
101325.0000000009
101325.0000000009
101325.0000000008
101325.0000000008
101325.0000000008
101325.0000000008
101325.0000000008
101325.0000000007
101325.0000000007
101325.0000000007
101325.0000000006
101325.0000000005
101325.0000000003
101325.0000000003
101325.0000000001
101325.0000000001
101324.9999999999
101324.9999999997
101324.9999999995
101324.9999999993
101324.9999999992
101324.9999999991
101324.999999999
101324.999999999
101324.9999999989
101324.9999999989
101324.9999999989
101324.9999999988
101324.9999999988
101324.9999999986
101324.9999999986
101324.9999999985
101324.9999999984
101324.9999999983
101324.9999999981
101324.999999998
101324.9999999978
101324.9999999977
101324.9999999974
101324.9999999972
101324.999999997
101324.9999999969
101324.9999999968
101324.9999999967
101324.9999999967
101324.9999999967
101324.9999999966
101324.9999999965
101324.9999999964
101324.9999999964
101324.9999999963
101324.9999999962
101324.9999999962
101324.9999999963
101324.9999999962
101324.9999999961
101324.9999999961
101324.999999996
101324.999999996
101324.9999999959
101324.9999999959
101324.9999999959
101324.9999999958
101324.9999999957
101324.9999999957
101324.9999999957
101324.9999999957
101324.9999999956
101324.9999999955
101324.9999999955
101324.9999999955
101324.9999999954
101324.9999999954
101324.9999999955
101324.9999999955
101324.9999999956
101324.9999999956
101324.9999999955
101324.9999999955
101324.9999999955
101324.9999999954
101324.9999999954
101324.9999999954
101324.9999999953
101324.9999999953
101324.9999999952
101324.9999999952
101324.9999999952
101324.9999999952
101324.9999999952
101324.9999999952
101324.9999999953
101324.9999999953
101324.9999999952
101324.9999999953
101324.9999999953
101324.9999999953
101324.9999999953
101324.9999999953
101324.9999999952
101324.9999999952
101324.9999999951
101324.9999999949
101324.9999999949
101324.9999999949
101324.9999999948
101324.9999999947
101324.9999999946
101324.9999999945
101324.9999999944
101324.9999999943
101324.9999999943
101324.9999999941
101324.9999999939
101324.9999999936
101324.9999999933
101324.9999999931
101324.9999999928
101324.9999999925
101324.9999999923
101324.9999999921
101324.9999999919
101324.9999999916
101324.9999999915
101324.9999999913
101324.9999999912
101324.9999999909
101324.9999999906
101324.9999999904
101324.99999999
101324.9999999897
101324.9999999894
101324.9999999892
101324.999999989
101324.9999999888
101324.9999999886
101324.9999999885
101324.9999999883
101324.9999999881
101324.9999999879
101324.9999999878
101324.9999999877
101324.9999999875
101324.9999999874
101324.9999999872
101324.999999987
101324.9999999869
101324.9999999867
101324.9999999865
101324.9999999863
101324.9999999861
101324.9999999858
101324.9999999856
101324.9999999854
101324.9999999852
101324.999999985
101324.9999999847
101324.9999999845
101324.9999999843
101324.9999999841
101324.9999999839
101324.9999999837
101324.9999999834
101324.9999999833
101324.9999999832
101324.9999999829
101324.9999999828
101324.9999999827
101324.9999999825
101324.9999999824
101324.9999999822
101324.999999982
101324.9999999818
101324.9999999815
101324.9999999812
101324.999999981
101324.9999999807
101324.9999999803
101324.99999998
101324.9999999797
101324.9999999795
101324.9999999792
101324.999999979
101324.9999999787
101324.9999999784
101324.9999999782
101324.9999999779
101324.9999999776
101324.9999999772
101324.9999999769
101324.9999999766
101324.9999999764
101324.9999999761
101324.9999999759
101324.9999999758
101324.9999999757
101324.9999999756
101324.9999999755
101324.9999999754
101324.9999999753
101324.9999999752
101324.9999999751
101324.9999999751
101324.9999999751
101324.9999999751
101324.9999999753
101324.9999999754
101324.9999999757
101324.9999999758
101324.999999976
101324.9999999761
101324.9999999763
101324.9999999765
101324.9999999765
101324.9999999765
101324.9999999766
101324.9999999767
101324.9999999769
101324.9999999771
101324.9999999772
101324.9999999773
101324.9999999774
101324.9999999776
101324.9999999777
101324.9999999778
101324.9999999779
101324.999999978
101324.9999999781
101324.9999999781
101324.9999999781
101324.9999999782
101324.9999999783
101324.9999999785
101324.9999999786
101324.9999999787
101324.9999999787
101324.9999999788
101324.9999999789
101324.9999999789
101324.999999979
101324.999999979
101324.9999999791
101324.9999999791
101324.9999999793
101324.9999999794
101324.9999999796
101324.9999999797
101324.99999998
)
;

boundaryField
{
    inlet
    {
        type            uniformFixedValue;
        uniformValue    sine;
        uniformValueCoeffs
        {
            frequency       constant 3000;
            scale           constant 50;
            level           constant 101325;
        }
        value           uniform 101323.6421297957;
    }
    outlet
    {
        type            pressureOutletNSCBC;
        pInf            101325;
        gamma           1.4;
        etaAc           1;
        fieldInf        1;
        lInf            2.25;
        value           uniform 101324.99999998;
    }
    frontAndBack
    {
        type            empty;
    }
}


// ************************************************************************* //
