/*--------------------------------*- C++ -*----------------------------------*\
| =========                 |                                                 |
| \\      /  F ield         | OpenFOAM: The Open Source CFD Toolbox           |
|  \\    /   O peration     | Version:  v2012                                 |
|   \\  /    A nd           | Website:  www.openfoam.com                      |
|    \\/     M anipulation  |                                                 |
\*---------------------------------------------------------------------------*/
FoamFile
{
    version     2.0;
    format      ascii;
    class       volScalarField;
    location    "0.003";
    object      pMean;
}
// * * * * * * * * * * * * * * * * * * * * * * * * * * * * * * * * * * * * * //

dimensions      [1 -1 -2 0 0 0 0];


internalField   nonuniform List<scalar> 
1000
(
101325.0382258403
101325.0146236483
101325.0591747333
101325.1008397485
101325.1632283323
101325.2380675989
101325.3244799901
101325.4224233704
101325.5283734208
101325.6423447021
101325.7594096822
101325.8773864584
101325.9943941884
101326.1104241735
101326.2225187303
101326.3293759868
101326.4276814108
101326.5163633779
101326.5928962157
101326.6568225262
101326.7062047711
101326.7409527791
101326.7596359228
101326.7626449567
101326.7491698606
101326.7201693205
101326.6755094082
101326.6166661468
101326.5439101076
101326.4587222704
101326.3614083638
101326.2542890721
101326.140580731
101326.0252243262
101325.9095975539
101325.7944966594
101325.6804407924
101325.5689213818
101325.4617361374
101325.3612779157
101325.2698452879
101325.189708064
101325.1225543555
101325.0697610345
101325.0321306917
101325.0102992888
101325.0045154276
101325.0149025118
101325.0412176198
101325.083050648
101325.1397741587
101325.2107836133
101325.2954079469
101325.3926151638
101325.499913066
101325.612760555
101325.7269210354
101325.8410689837
101325.9547909734
101326.0676395091
101326.1781979653
101326.2851270241
101326.3860785552
101326.4790778131
101326.5615307583
101326.6316986917
101326.6876468597
101326.7285346996
101326.7533942788
101326.7622341639
101326.7547876509
101326.7315648211
101326.6926568671
101326.6387549948
101326.5700267407
101326.4872317735
101326.391205499
101326.2849751332
101326.1731986714
101326.0603093372
101325.9473379004
101325.8347142936
101325.7229115746
101325.6129318878
101325.506180309
101325.4044924109
101325.3099878726
101325.2249395943
101325.1515282235
101325.0916801941
101325.0468629382
101325.0180627052
101325.0057500832
101325.0100150512
101325.0306306469
101325.0672537759
101325.1194905295
101325.1870051155
101325.2692768473
101325.3650177237
101325.4709610353
101325.5819207968
101325.6938908145
101325.8058440584
101325.9174552546
101326.0283706903
101326.1375006551
101326.2437635563
101326.3452778057
101326.4402722445
101326.5263861421
101326.6016686954
101326.6639383854
101326.7117720225
101326.7437977876
101326.7595520644
101326.7586124042
101326.7412974056
101326.7077023013
101326.6583759197
101326.5934623453
101326.5136349348
101326.4199335201
101326.3156729287
101326.2058641014
101326.0949196082
101325.9838931658
101325.8731400244
101325.7630162423
101325.6543358682
101325.5482135393
101325.4461927125
101325.3500793534
101325.2619682511
101325.1839850553
101325.1182404134
101325.0665395937
101325.0303515062
101325.0106195243
101325.0078588919
101325.0221272383
101325.0532680391
101325.1009544178
101325.1648608038
101325.2443584845
101325.3379556953
101325.4420480408
101325.5512232429
101325.661412048
101325.7716031674
101325.8815246068
101325.9908866615
101326.0988032885
101326.2043655886
101326.3059913216
101326.4021251132
101326.4906545604
101326.5696852801
101326.6370272066
101326.6910001184
101326.7299244896
101326.7528692423
101326.7590259813
101326.7483185965
101326.7206326832
101326.6763561673
101326.6156416764
101326.5391974105
101326.4482169915
101326.3461460757
101326.2381754935
101326.1288923272
101326.0195004589
101325.9103223484
101325.8016302482
101325.6940926931
101325.5886412585
101325.4865861393
101325.3895046197
101325.2992729803
101325.2178886043
101325.1474380199
101325.0898567266
101325.0468902503
101325.019870962
101325.0097634637
101325.0170499711
101325.0419263988
101325.0842849319
101325.1438932194
101325.2200712578
101325.3111629661
101325.4133068866
101325.5208429259
101325.6295056565
101325.7381968921
101325.8466671356
101325.9546922557
101326.0615200716
101326.1663901893
101326.2679295032
101326.3647772633
101326.4550282687
101326.5369165455
101326.6083196787
101326.6674848181
101326.7125578214
101326.7422941966
101326.7555268084
101326.7517725028
101326.7305899966
101326.6920915365
101326.6363029321
101326.5638726414
101326.4760528941
101326.3763433734
101326.2701243229
101326.1622944561
101326.0543181061
101325.9465106576
101325.8390820618
101325.7325903256
101325.6278224342
101325.5259051572
101325.4282226106
101325.3364572249
101325.2524560026
101325.1782156002
101325.1156927254
101325.0667607506
101325.0330141897
101325.0157597349
101325.0158913835
101325.0339882807
101325.0702850699
101325.1247610552
101325.196855844
101325.2848848948
101325.3848647647
101325.4908219199
101325.5981313131
101325.7054901924
101325.8126827241
101325.919515142
101326.0253583835
101326.1295490163
101326.2308963409
101326.3281863388
101326.4197117781
101326.5038298085
101326.57853694
101326.642072082
101326.6925220313
101326.728433254
101326.7483853052
101326.7515399381
101326.7371326058
101326.7049449569
101326.6547791056
101326.587098682
101326.5030594941
101326.4060731718
101326.3016566881
101326.1951684829
101326.0884604131
101325.9818893463
101325.8756036655
101325.7700831765
101325.6659901414
101325.5643156915
101325.4662721346
101325.3733810925
101325.2873298441
101325.210009975
101325.1433297969
101325.0892140728
101325.0494032775
101325.0254536241
101325.0185824168
101325.0297310092
101325.0594873081
101325.1081283572
101325.1753263712
101325.2595563302
101325.356913841
101325.4612021038
101325.5672562374
101325.6734108541
101325.779443872
101325.8851817998
101325.9901101269
101326.0936307016
101326.1947206232
101326.2922688849
101326.384760135
101326.4706472377
101326.5480779539
101326.6153016412
101326.6704328867
101326.7118702554
101326.7380518404
101326.74783672
101326.7402094514
101326.7146030778
101326.6705877424
101326.6083343089
101326.5287983242
101326.4350793862
101326.3326994083
101326.2275101206
101326.121980159
101326.0165424024
101325.9113311129
101325.8067203201
101325.7033097251
101325.6019366185
101325.5037106147
101325.4099740484
101325.3223056179
101325.2424480633
101325.1722667416
101325.1136511675
101325.0684416535
101325.0383311264
101325.0247991306
101325.029064838
101325.0520529023
101325.0943383231
101325.1559058988
101325.2355416011
101325.3296670062
101325.4320523039
101325.5368741154
101325.641905196
101325.7468473176
101325.8515623933
101325.9556126672
101326.0584795884
101326.1592520407
101326.2569382746
101326.3501533346
101326.4374784605
101326.5171652264
101326.5875424993
101326.6467370737
101326.693112918
101326.7249785446
101326.7410236877
101326.739982397
101326.7210433346
101326.6834886739
101326.6272347064
101326.5528823269
101326.4631134597
101326.3631408557
101326.2593239995
101326.154889176
101326.050537941
101325.9463296227
101325.8426169231
101325.7398740252
101325.638877848
101325.5405788949
101325.4462348944
101325.3572547905
101325.2753095
101325.2021369632
101325.1396300085
101325.0896092233
101325.0539025526
101325.0341144044
101325.0317299274
101325.0478991824
101325.083523989
101325.1388745611
101325.2131873979
101325.3033717079
101325.4034723836
101325.5069951156
101325.6109534541
101325.7148413358
101325.8185680639
101325.9217603916
101326.0239664763
101326.1243793505
101326.2220971474
101326.3158634783
101326.4043545574
101326.4859444094
101326.5590205309
101326.6217752662
101326.6725401614
101326.7095841303
101326.7314442592
101326.7367078478
101326.7243180861
101326.6933515649
101326.6434221122
101326.5748108429
101326.4896351683
101326.3926475134
101326.2904471207
101326.187209402
101326.0839963224
101325.9808907992
101325.8781581848
101325.7762265278
101325.6757445621
101325.5775801885
101325.4828174561
101325.3927363151
101325.3087750705
101325.2324719464
101325.1653822083
101325.1089644934
101325.0644189698
101325.032429003
101325.0127081574
101325.0033245352
101325.0004538196
101325.0000229199
101325.0000002863
101325.0000000009
101325.0000000003
101325.0000000004
101325.0000000003
101325.0000000003
101325.0000000003
101325.0000000003
101325.0000000003
101325.0000000003
101325.0000000003
101325.0000000003
101325.0000000003
101325.0000000003
101325.0000000003
101325.0000000003
101325.0000000003
101325.0000000003
101325.0000000003
101325.0000000003
101325.0000000003
101325.0000000003
101325.0000000003
101325.0000000003
101325.0000000003
101325.0000000003
101325.0000000003
101325.0000000003
101325.0000000003
101325.0000000003
101325.0000000003
101325.0000000003
101325.0000000003
101325.0000000003
101325.0000000003
101325.0000000003
101325.0000000003
101325.0000000003
101325.0000000003
101325.0000000003
101325.0000000003
101325.0000000003
101325.0000000003
101325.0000000003
101325.0000000003
101325.0000000003
101325.0000000003
101325.0000000003
101325.0000000003
101325.0000000003
101325.0000000003
101325.0000000004
101325.0000000003
101325.0000000003
101325.0000000003
101325.0000000003
101325.0000000003
101325.0000000003
101325.0000000003
101325.0000000003
101325.0000000003
101325.0000000003
101325.0000000003
101325.0000000003
101325.0000000003
101325.0000000003
101325.0000000003
101325.0000000003
101325.0000000003
101325.0000000003
101325.0000000003
101325.0000000003
101325.0000000003
101325.0000000003
101325.0000000003
101325.0000000003
101325.0000000003
101325.0000000003
101325.0000000003
101325.0000000003
101325.0000000003
101325.0000000003
101325.0000000003
101325.0000000003
101325.0000000003
101325.0000000003
101325.0000000003
101325.0000000003
101325.0000000003
101325.0000000003
101325.0000000003
101325.0000000003
101325.0000000003
101325.0000000003
101325.0000000003
101325.0000000003
101325.0000000003
101325.0000000003
101325.0000000003
101325.0000000003
101325.0000000003
101325.0000000003
101325.0000000003
101325.0000000003
101325.0000000003
101325.0000000003
101325.0000000003
101325.0000000004
101325.0000000004
101325.0000000003
101325.0000000004
101325.0000000004
101325.0000000004
101325.0000000004
101325.0000000004
101325.0000000003
101325.0000000003
101325.0000000003
101325.0000000003
101325.0000000003
101325.0000000003
101325.0000000003
101325.0000000004
101325.0000000004
101325.0000000004
101325.0000000004
101325.0000000003
101325.0000000003
101325.0000000004
101325.0000000003
101325.0000000004
101325.0000000004
101325.0000000003
101325.0000000003
101325.0000000004
101325.0000000004
101325.0000000004
101325.0000000003
101325.0000000004
101325.0000000004
101325.0000000004
101325.0000000004
101325.0000000004
101325.0000000004
101325.0000000004
101325.0000000004
101325.0000000004
101325.0000000004
101325.0000000003
101325.0000000003
101325.0000000004
101325.0000000004
101325.0000000004
101325.0000000003
101325.0000000003
101325.0000000004
101325.0000000004
101325.0000000004
101325.0000000004
101325.0000000003
101325.0000000003
101325.0000000004
101325.0000000003
101325.0000000003
101325.0000000004
101325.0000000003
101325.0000000003
101325.0000000003
101325.0000000003
101325.0000000004
101325.0000000004
101325.0000000004
101325.0000000004
101325.0000000004
101325.0000000004
101325.0000000004
101325.0000000004
101325.0000000004
101325.0000000004
101325.0000000003
101325.0000000004
101325.0000000004
101325.0000000004
101325.0000000004
101325.0000000004
101325.0000000004
101325.0000000004
101325.0000000004
101325.0000000003
101325.0000000004
101325.0000000004
101325.0000000004
101325.0000000004
101325.0000000004
101325.0000000004
101325.0000000004
101325.0000000004
101325.0000000004
101325.0000000004
101325.0000000004
101325.0000000004
101325.0000000004
101325.0000000004
101325.0000000004
101325.0000000004
101325.0000000004
101325.0000000004
101325.0000000004
101325.0000000004
101325.0000000004
101325.0000000004
101325.0000000004
101325.0000000004
101325.0000000004
101325.0000000004
101325.0000000004
101325.0000000004
101325.0000000004
101325.0000000004
101325.0000000004
101325.0000000004
101325.0000000004
101325.0000000003
101325.0000000003
101325.0000000004
101325.0000000004
101325.0000000004
101325.0000000004
101325.0000000004
101325.0000000004
101325.0000000004
101325.0000000004
101325.0000000004
101325.0000000004
101325.0000000004
101325.0000000004
101325.0000000003
101325.0000000003
101325.0000000003
101325.0000000004
101325.0000000003
101325.0000000004
101325.0000000003
101325.0000000003
101325.0000000003
101325.0000000003
101325.0000000003
101325.0000000003
101325.0000000003
101325.0000000003
101325.0000000004
101325.0000000004
101325.0000000003
101325.0000000003
101325.0000000003
101325.0000000003
101325.0000000003
101325.0000000003
101325.0000000003
101325.0000000003
101325.0000000003
101325.0000000003
101325.0000000003
101325.0000000003
101325.0000000003
101325.0000000003
101325.0000000003
101325.0000000003
101325.0000000003
101325.0000000003
101325.0000000004
101325.0000000003
101325.0000000003
101325.0000000004
101325.0000000003
101325.0000000004
101325.0000000004
101325.0000000004
101325.0000000004
101325.0000000004
101325.0000000004
101325.0000000004
101325.0000000004
101325.0000000003
101325.0000000003
101325.0000000003
101325.0000000003
101325.0000000003
101325.0000000003
101325.0000000003
101325.0000000003
101325.0000000003
101325.0000000003
101325.0000000003
101325.0000000003
101325.0000000004
101325.0000000004
101325.0000000004
101325.0000000004
101325.0000000003
101325.0000000003
101325.0000000003
101325.0000000003
101325.0000000003
101325.0000000003
101325.0000000003
101325.0000000003
101325.0000000003
101325.0000000003
101325.0000000003
101325.0000000004
101325.0000000004
101325.0000000004
101325.0000000003
101325.0000000003
101325.0000000003
101325.0000000003
101325.0000000003
101325.0000000003
101325.0000000003
101325.0000000003
101325.0000000003
101325.0000000004
101325.0000000003
101325.0000000003
101325.0000000004
101325.0000000004
101325.0000000004
101325.0000000004
101325.0000000004
101325.0000000004
101325.0000000004
101325.0000000003
101325.0000000003
101325.0000000004
101325.0000000003
101325.0000000004
101325.0000000003
101325.0000000003
101325.0000000003
101325.0000000003
101325.0000000003
101325.0000000003
101325.0000000003
101325.0000000003
101325.0000000003
101325.0000000003
101325.0000000003
101325.0000000003
101325.0000000003
101325.0000000003
101325.0000000003
101325.0000000003
101325.0000000003
101325.0000000003
101325.0000000003
101325.0000000003
101325.0000000003
101325.0000000003
101325.0000000003
101325.0000000003
101325.0000000003
101325.0000000003
101325.0000000003
101325.0000000003
101325.0000000003
101325.0000000003
101325.0000000003
101325.0000000002
101325.0000000002
101325.0000000002
101325.0000000002
101325.0000000002
101325.0000000002
101325.0000000002
101325.0000000002
101325.0000000002
101325.0000000002
101325.0000000001
101325.0000000001
101325.0000000001
101325.0000000001
101325.0000000001
101325.0000000001
101325.0000000001
101325.0000000001
101325.0000000001
101325.0000000001
101325
101325
101325
101325
101325
101325
101324.9999999999
101325
101325
101325
101325
101324.9999999999
101324.9999999999
101324.9999999999
101324.9999999999
101324.9999999999
101324.9999999999
101324.9999999999
101324.9999999999
101324.9999999999
101324.9999999998
101324.9999999998
101324.9999999997
101324.9999999997
101324.9999999997
101324.9999999997
101324.9999999997
101324.9999999997
101324.9999999997
101324.9999999997
101324.9999999997
101324.9999999996
101324.9999999996
101324.9999999996
101324.9999999996
101324.9999999996
101324.9999999996
101324.9999999996
101324.9999999995
101324.9999999995
101324.9999999995
101324.9999999995
101324.9999999995
101324.9999999995
101324.9999999995
101324.9999999995
101324.9999999994
101324.9999999994
101324.9999999994
101324.9999999994
101324.9999999994
101324.9999999994
101324.9999999994
101324.9999999994
101324.9999999994
101324.9999999993
101324.9999999993
101324.9999999993
101324.9999999993
101324.9999999993
101324.9999999993
101324.9999999993
101324.9999999992
101324.9999999992
101324.9999999992
101324.9999999992
101324.9999999992
101324.9999999992
101324.9999999992
101324.9999999991
101324.9999999991
101324.9999999991
101324.9999999991
101324.9999999991
101324.999999999
101324.999999999
101324.9999999989
101324.9999999989
101324.9999999988
101324.9999999987
101324.9999999987
101324.9999999987
101324.9999999987
101324.9999999987
101324.9999999987
101324.9999999987
101324.9999999986
101324.9999999986
101324.9999999986
101324.9999999986
101324.9999999985
101324.9999999985
101324.9999999984
101324.9999999984
101324.9999999983
101324.9999999983
101324.9999999983
101324.9999999983
101324.9999999982
101324.9999999982
101324.9999999981
101324.9999999981
101324.999999998
101324.999999998
101324.999999998
101324.999999998
101324.9999999979
101324.9999999979
101324.9999999978
101324.9999999978
101324.9999999976
101324.9999999976
101324.9999999975
101324.9999999974
101324.9999999974
101324.9999999974
101324.9999999973
101324.9999999972
101324.9999999972
101324.9999999971
101324.9999999971
101324.999999997
101324.999999997
101324.9999999969
101324.9999999968
101324.9999999968
101324.9999999968
101324.9999999967
101324.9999999967
101324.9999999967
101324.9999999966
101324.9999999965
101324.9999999965
101324.9999999965
101324.9999999964
101324.9999999963
101324.9999999963
101324.9999999962
101324.9999999962
101324.9999999961
101324.9999999961
101324.9999999959
101324.9999999959
101324.9999999959
101324.9999999958
101324.9999999957
101324.9999999956
101324.9999999956
101324.9999999955
101324.9999999955
101324.9999999954
101324.9999999954
101324.9999999953
101324.9999999953
101324.9999999953
101324.9999999952
101324.9999999951
101324.999999995
101324.999999995
101324.9999999949
101324.9999999949
101324.9999999949
101324.9999999948
101324.9999999947
101324.9999999947
101324.9999999946
101324.9999999946
101324.9999999945
101324.9999999945
101324.9999999944
101324.9999999944
101324.9999999943
101324.9999999943
101324.9999999942
101324.9999999942
101324.9999999941
101324.999999994
101324.999999994
101324.9999999939
101324.9999999939
101324.9999999938
101324.9999999937
101324.9999999937
101324.9999999936
101324.9999999935
101324.9999999935
101324.9999999935
101324.9999999934
101324.9999999933
101324.9999999932
101324.9999999932
)
;

boundaryField
{
    inlet
    {
        type            calculated;
        value           uniform 101325.0000000001;
    }
    outlet
    {
        type            calculated;
        value           uniform 101324.9999999932;
    }
    frontAndBack
    {
        type            empty;
    }
}


// ************************************************************************* //
