/*--------------------------------*- C++ -*----------------------------------*\
| =========                 |                                                 |
| \\      /  F ield         | OpenFOAM: The Open Source CFD Toolbox           |
|  \\    /   O peration     | Version:  v2012                                 |
|   \\  /    A nd           | Website:  www.openfoam.com                      |
|    \\/     M anipulation  |                                                 |
\*---------------------------------------------------------------------------*/
FoamFile
{
    version     2.0;
    format      ascii;
    class       volScalarField;
    location    "0.003";
    object      rho;
}
// * * * * * * * * * * * * * * * * * * * * * * * * * * * * * * * * * * * * * //

dimensions      [1 -3 0 0 0 0 0];


internalField   nonuniform List<scalar> 
1000
(
1.17629486732662
1.176318464213894
1.17626498937421
1.176221881652144
1.176171767500205
1.17612622127896
1.176087712150107
1.176055432659675
1.176028024065408
1.17600972311468
1.176004911912842
1.176004942130343
1.176007906567802
1.176016323982678
1.1760328300364
1.176057853027017
1.176090407446821
1.176129022334601
1.17617250045485
1.176220015727438
1.17627087851074
1.176324336132873
1.176379508814038
1.176435387372168
1.176490856410692
1.176544787471373
1.176596221212689
1.176644582128638
1.176689795023868
1.176731946388964
1.176769738473066
1.176797805298656
1.17680984125128
1.176811235851863
1.176810625607156
1.176808446538224
1.176802293709563
1.176790244637378
1.176770564902649
1.176742465196409
1.176706274136666
1.176663262098686
1.176615121762888
1.176563440118346
1.176509450819796
1.176454095020244
1.17639820437161
1.176342627377321
1.176288230517313
1.176235752690894
1.176185565241142
1.176137650905865
1.176092435947434
1.176053023105422
1.176026816293318
1.176017895423352
1.176017288580532
1.176017627094175
1.176019792643678
1.176025121405805
1.176035485369888
1.176052469826989
1.176077204704353
1.176110050680069
1.176150499355244
1.176197290615461
1.176248730448457
1.176303083549604
1.176358866018942
1.17641493500163
1.176470436760781
1.176524772055241
1.176577641207082
1.176629031717381
1.176678894137567
1.176726166569116
1.176766803527832
1.176792967258612
1.176801570863798
1.176802199437313
1.1768017300871
1.176800027693971
1.176795494338904
1.176786684231912
1.17677206099569
1.176750373418442
1.176720872715748
1.176683509840655
1.176638985891667
1.176588633614601
1.176534171649104
1.176477401716225
1.17641991607768
1.176362885944383
1.176306986784456
1.176252454320717
1.176199244956321
1.176147455310522
1.176098507952505
1.176057381832649
1.176032487882551
1.176025237173596
1.176024869511869
1.176025170345006
1.176026896361156
1.176031087104444
1.176039204618861
1.176052620910073
1.176072541462923
1.176099791566556
1.17613465458862
1.176176764434475
1.176225112097529
1.176278197445655
1.176334289683012
1.176391712595774
1.176449093078795
1.176505546297637
1.176560742464605
1.176614739811763
1.176667432742735
1.176717365419371
1.176759739048594
1.176786302384923
1.176794802278924
1.176795451307074
1.176795098469073
1.176793788248974
1.176790247312097
1.176783284337548
1.176771572919977
1.17675389849787
1.176729300163681
1.176697242737014
1.176657742147644
1.176611417302642
1.176559449530521
1.176503429432819
1.176445089910344
1.176385989443752
1.176327261897784
1.176269526254219
1.176213016963778
1.17615810206174
1.176106602548094
1.176063976598918
1.17603867654143
1.176031391146148
1.176030979027197
1.176031205655755
1.176032565612728
1.176035944171156
1.176042565761516
1.176053627342371
1.176070262981732
1.176093395235444
1.176123603200817
1.176160996270275
1.176205140886553
1.176255081191967
1.176309458049318
1.1763667024273
1.176425282414646
1.176483967538222
1.176542005898039
1.176599050946628
1.176654664127305
1.176707143356387
1.176751547676748
1.176779603233219
1.176788934545572
1.176789765112731
1.176789509466973
1.176788528218301
1.176785735725028
1.176780113992293
1.176770488774397
1.176755730985147
1.176734849851012
1.176707124518237
1.176672218302691
1.176630265436525
1.176581912009606
1.176528275804403
1.176470794054923
1.176410982296165
1.176350184998495
1.176289410538391
1.17622935911205
1.176170874195
1.176116241488741
1.176071307023515
1.176044631335346
1.176036726210324
1.176036184326546
1.17603635473761
1.176037439438797
1.176040194217754
1.176045681830211
1.176054966221816
1.17606910168695
1.176089017816247
1.176115415780823
1.176148657373629
1.176188680271953
1.176234969911445
1.176286596647535
1.17634231666592
1.176400744903628
1.176460585669156
1.176520828392323
1.176580745791966
1.176639500642599
1.176695074979625
1.176742357270878
1.176772894474747
1.17678369423686
1.176784844266545
1.176784664945766
1.176783923432346
1.17678169416819
1.176777092966214
1.176769074335773
1.176756596681747
1.176738686635508
1.176714543755749
1.176683637061252
1.176645792603973
1.176601259887763
1.176550724823377
1.176495236199527
1.176436053350548
1.1763744631347
1.176311626212649
1.176248558402864
1.176186510053808
1.176128201153743
1.176079905572188
1.17605067827043
1.176041549438054
1.176040791630481
1.176040901708121
1.176041750942346
1.176043995310806
1.176048583316556
1.176056466962577
1.17606861686461
1.176085931760569
1.176109159470494
1.176138804021289
1.176175045091648
1.176217691692033
1.176266176739927
1.176319598742208
1.176376830481382
1.176436692575419
1.176498118504021
1.176560173762223
1.176621745025326
1.17668058740917
1.176731473113632
1.176765598822114
1.176778720240101
1.176780421858723
1.176780308380691
1.176779772722919
1.176778004170229
1.176774226095064
1.176767493582168
1.176756850240759
1.176741366067432
1.176720218699238
1.1766927711781
1.176658651396261
1.176617823546712
1.176570625032472
1.17651774200798
1.176460124738301
1.176398868460942
1.17633509725633
1.1762699468764
1.17620490335921
1.176142948331882
1.176090592413139
1.176057506638818
1.176046155841036
1.176044957204951
1.1760450240247
1.176045678430219
1.176047500646398
1.176051340711964
1.17605806374589
1.176068569906336
1.176083720541847
1.176104274158304
1.176130810321222
1.176163661284412
1.176202863909691
1.17624813393945
1.176298872032611
1.17635422608724
1.176413211913236
1.17647483404992
1.176538100822322
1.176601777416884
1.176663562138745
1.176718323971295
1.176757024675886
1.176773620411365
1.176776327565464
1.176776284688349
1.176775927121668
1.176774544649826
1.176771458501056
1.176765799948111
1.176756684772897
1.176743230723572
1.176724621275657
1.176700166804803
1.176669372249521
1.176632003538883
1.176588132397518
1.176538140269247
1.176482681001825
1.176422614204402
1.176358930162583
1.176292746121462
1.176225603384612
1.176160488954696
1.17610380173462
1.176065695575394
1.176050897677759
1.176048868547457
1.176048881493713
1.176049359962017
1.176050808097258
1.176053999742694
1.176059731003553
1.176068840855265
1.176082149741725
1.176100408397213
1.176124235748685
1.176154062116507
1.176190083532637
1.176232227111072
1.176280138614302
1.17633321527884
1.176390684116505
1.176451680557673
1.176515253549548
1.176580173809403
1.176644247143497
1.176702694975291
1.176746599474926
1.176767950164276
1.176772398250309
1.176772505965198
1.176772284796757
1.176771231719177
1.176768737966658
1.176764000192748
1.176756193739648
1.176744480183074
1.176728059261806
1.176706217813075
1.176678386307156
1.176644195339661
1.176603520154365
1.176556502013364
1.176503542150536
1.176445269411909
1.176382497059224
1.17631623701751
1.176247956609882
1.176180445819248
1.176119648155462
1.176075782020419
1.176056183315909
1.176052657975053
1.176052602560127
1.176052905782364
1.176054020345555
1.176056629580002
1.176061481637334
1.176069367663859
1.176081071315902
1.176097327250148
1.176118771505483
1.176145895527939
1.176179004955878
1.176218182608899
1.176263267663896
1.176313869652901
1.17636941428311
1.176429188161701
1.176492335276913
1.176557709368784
1.176623313152416
1.176684864220741
1.176733930887696
1.17676093698056
1.176768071700337
1.17676850595185
1.176768377472386
1.17676760255113
1.176765626684436
1.17676170853112
1.176755094740634
1.176745020493813
1.176730768580071
1.176711724376207
1.1766874438964
1.176657733215666
1.176622743833274
1.176583105667518
1.176540169969635
1.176496526167052
1.176456889504187
1.176428185415741
1.176414835594627
1.176411925977611
1.176411719442589
1.176411716180048
1.176411716172205
1.176411716172203
1.176411716172204
1.176411716172204
1.176411716172204
1.176411716172204
1.176411716172205
1.176411716172205
1.176411716172205
1.176411716172205
1.176411716172205
1.176411716172205
1.176411716172205
1.176411716172205
1.176411716172205
1.176411716172204
1.176411716172204
1.176411716172205
1.176411716172205
1.176411716172204
1.176411716172205
1.176411716172204
1.176411716172203
1.176411716172203
1.176411716172203
1.176411716172203
1.176411716172203
1.176411716172203
1.176411716172203
1.176411716172203
1.176411716172203
1.176411716172203
1.176411716172203
1.176411716172202
1.176411716172202
1.176411716172203
1.176411716172203
1.176411716172203
1.176411716172203
1.176411716172203
1.176411716172203
1.176411716172203
1.176411716172203
1.176411716172202
1.176411716172202
1.176411716172201
1.176411716172201
1.176411716172201
1.1764117161722
1.1764117161722
1.1764117161722
1.1764117161722
1.176411716172201
1.176411716172201
1.1764117161722
1.1764117161722
1.1764117161722
1.176411716172201
1.176411716172201
1.176411716172201
1.176411716172201
1.176411716172201
1.176411716172202
1.176411716172203
1.176411716172202
1.176411716172203
1.176411716172203
1.176411716172203
1.176411716172203
1.176411716172202
1.176411716172201
1.176411716172201
1.176411716172201
1.176411716172201
1.176411716172202
1.176411716172203
1.176411716172203
1.176411716172203
1.176411716172202
1.176411716172201
1.176411716172201
1.1764117161722
1.1764117161722
1.176411716172201
1.176411716172201
1.176411716172201
1.176411716172201
1.176411716172201
1.176411716172201
1.1764117161722
1.1764117161722
1.1764117161722
1.176411716172201
1.176411716172201
1.176411716172201
1.176411716172201
1.176411716172202
1.176411716172203
1.176411716172203
1.176411716172202
1.176411716172202
1.176411716172202
1.176411716172202
1.176411716172203
1.176411716172203
1.176411716172204
1.176411716172204
1.176411716172204
1.176411716172204
1.176411716172204
1.176411716172204
1.176411716172204
1.176411716172204
1.176411716172204
1.176411716172204
1.176411716172203
1.176411716172203
1.176411716172204
1.176411716172204
1.176411716172204
1.176411716172204
1.176411716172203
1.176411716172202
1.176411716172201
1.176411716172201
1.176411716172201
1.176411716172201
1.176411716172201
1.176411716172201
1.1764117161722
1.1764117161722
1.1764117161722
1.176411716172201
1.176411716172201
1.176411716172201
1.176411716172201
1.176411716172201
1.176411716172201
1.176411716172202
1.176411716172203
1.176411716172203
1.176411716172204
1.176411716172205
1.176411716172204
1.176411716172204
1.176411716172204
1.176411716172203
1.176411716172203
1.176411716172203
1.176411716172203
1.176411716172203
1.176411716172203
1.176411716172204
1.176411716172204
1.176411716172204
1.176411716172204
1.176411716172204
1.176411716172203
1.176411716172203
1.176411716172203
1.176411716172203
1.176411716172203
1.176411716172202
1.176411716172203
1.176411716172203
1.176411716172203
1.176411716172202
1.176411716172202
1.176411716172201
1.176411716172201
1.176411716172201
1.176411716172201
1.176411716172201
1.176411716172201
1.176411716172201
1.176411716172202
1.176411716172203
1.176411716172203
1.176411716172204
1.176411716172204
1.176411716172204
1.176411716172204
1.176411716172204
1.176411716172204
1.176411716172204
1.176411716172204
1.176411716172204
1.176411716172203
1.176411716172203
1.176411716172203
1.176411716172204
1.176411716172204
1.176411716172204
1.176411716172204
1.176411716172203
1.176411716172203
1.176411716172202
1.176411716172202
1.176411716172203
1.176411716172203
1.176411716172203
1.176411716172204
1.176411716172204
1.176411716172204
1.176411716172204
1.176411716172205
1.176411716172205
1.176411716172205
1.176411716172205
1.176411716172205
1.176411716172204
1.176411716172204
1.176411716172204
1.176411716172203
1.176411716172204
1.176411716172204
1.176411716172203
1.176411716172204
1.176411716172204
1.176411716172204
1.176411716172204
1.176411716172205
1.176411716172205
1.176411716172205
1.176411716172205
1.176411716172206
1.176411716172205
1.176411716172205
1.176411716172205
1.176411716172205
1.176411716172205
1.176411716172204
1.176411716172203
1.176411716172203
1.176411716172203
1.176411716172204
1.176411716172204
1.176411716172204
1.176411716172203
1.176411716172204
1.176411716172204
1.176411716172204
1.176411716172204
1.176411716172204
1.176411716172203
1.176411716172202
1.176411716172201
1.176411716172201
1.176411716172201
1.176411716172202
1.176411716172203
1.176411716172204
1.176411716172203
1.176411716172203
1.176411716172203
1.176411716172203
1.176411716172203
1.176411716172203
1.176411716172204
1.176411716172204
1.176411716172204
1.176411716172204
1.176411716172204
1.176411716172204
1.176411716172204
1.176411716172204
1.176411716172204
1.176411716172204
1.176411716172205
1.176411716172205
1.176411716172205
1.176411716172205
1.176411716172204
1.176411716172204
1.176411716172205
1.176411716172205
1.176411716172205
1.176411716172205
1.176411716172204
1.176411716172204
1.176411716172204
1.176411716172203
1.176411716172203
1.176411716172203
1.176411716172204
1.176411716172204
1.176411716172204
1.176411716172205
1.176411716172206
1.176411716172206
1.176411716172206
1.176411716172206
1.176411716172206
1.176411716172206
1.176411716172206
1.176411716172206
1.176411716172207
1.176411716172207
1.176411716172207
1.176411716172207
1.176411716172207
1.176411716172207
1.176411716172207
1.176411716172207
1.176411716172206
1.176411716172205
1.176411716172205
1.176411716172206
1.176411716172207
1.176411716172207
1.176411716172207
1.176411716172207
1.176411716172207
1.176411716172207
1.176411716172207
1.176411716172206
1.176411716172205
1.176411716172206
1.176411716172206
1.176411716172207
1.176411716172207
1.176411716172207
1.176411716172207
1.176411716172207
1.176411716172207
1.176411716172207
1.176411716172207
1.176411716172207
1.176411716172207
1.176411716172206
1.176411716172206
1.176411716172205
1.176411716172204
1.176411716172204
1.176411716172205
1.176411716172205
1.176411716172204
1.176411716172205
1.176411716172204
1.176411716172203
1.176411716172203
1.176411716172201
1.1764117161722
1.176411716172199
1.176411716172198
1.176411716172198
1.176411716172196
1.176411716172194
1.176411716172193
1.176411716172192
1.176411716172191
1.17641171617219
1.176411716172189
1.176411716172188
1.176411716172188
1.176411716172188
1.176411716172187
1.176411716172187
1.176411716172187
1.176411716172186
1.176411716172185
1.176411716172184
1.176411716172184
1.176411716172182
1.176411716172181
1.176411716172179
1.176411716172179
1.176411716172177
1.176411716172175
1.176411716172174
1.176411716172173
1.176411716172172
1.176411716172171
1.176411716172172
1.176411716172171
1.176411716172171
1.17641171617217
1.176411716172169
1.176411716172169
1.176411716172168
1.176411716172168
1.176411716172168
1.176411716172168
1.176411716172168
1.176411716172167
1.176411716172166
1.176411716172165
1.176411716172165
1.176411716172164
1.176411716172164
1.176411716172164
1.176411716172163
1.176411716172162
1.176411716172162
1.176411716172162
1.176411716172162
1.176411716172162
1.176411716172162
1.176411716172162
1.176411716172161
1.176411716172161
1.176411716172161
1.176411716172162
1.176411716172162
1.176411716172162
1.176411716172162
1.176411716172162
1.176411716172162
1.176411716172161
1.176411716172161
1.176411716172161
1.176411716172161
1.17641171617216
1.176411716172159
1.176411716172159
1.176411716172159
1.176411716172159
1.176411716172158
1.176411716172158
1.176411716172158
1.176411716172158
1.176411716172159
1.176411716172159
1.176411716172159
1.176411716172159
1.176411716172159
1.176411716172159
1.176411716172159
1.176411716172159
1.176411716172159
1.176411716172158
1.176411716172157
1.176411716172157
1.176411716172156
1.176411716172155
1.176411716172153
1.176411716172153
1.176411716172152
1.176411716172151
1.176411716172151
1.17641171617215
1.176411716172149
1.176411716172148
1.176411716172145
1.176411716172143
1.176411716172141
1.176411716172139
1.176411716172137
1.176411716172135
1.176411716172133
1.176411716172131
1.176411716172129
1.176411716172128
1.176411716172127
1.176411716172126
1.176411716172124
1.176411716172121
1.176411716172119
1.176411716172116
1.176411716172114
1.176411716172111
1.176411716172109
1.176411716172107
1.176411716172106
1.176411716172104
1.176411716172103
1.176411716172101
1.176411716172099
1.176411716172098
1.176411716172097
1.176411716172096
1.176411716172095
1.176411716172094
1.176411716172092
1.176411716172091
1.17641171617209
1.176411716172088
1.176411716172086
1.176411716172084
1.176411716172083
1.176411716172081
1.176411716172079
1.176411716172077
1.176411716172075
1.176411716172074
1.176411716172072
1.17641171617207
1.176411716172068
1.176411716172066
1.176411716172064
1.176411716172062
1.17641171617206
1.176411716172059
1.176411716172058
1.176411716172056
1.176411716172055
1.176411716172054
1.176411716172053
1.176411716172052
1.17641171617205
1.176411716172049
1.176411716172047
1.176411716172045
1.176411716172042
1.17641171617204
1.176411716172038
1.176411716172035
1.176411716172032
1.17641171617203
1.176411716172028
1.176411716172026
1.176411716172024
1.176411716172021
1.176411716172019
1.176411716172017
1.176411716172014
1.176411716172012
1.176411716172009
1.176411716172007
1.176411716172004
1.176411716172002
1.176411716172
1.176411716171998
1.176411716171997
1.176411716171996
1.176411716171995
1.176411716171994
1.176411716171994
1.176411716171993
1.176411716171992
1.176411716171991
1.176411716171991
1.176411716171991
1.176411716171991
1.176411716171992
1.176411716171994
1.176411716171996
1.176411716171997
1.176411716171999
1.176411716172
1.176411716172001
1.176411716172002
1.176411716172002
1.176411716172003
1.176411716172004
1.176411716172005
1.176411716172006
1.176411716172007
1.176411716172008
1.17641171617201
1.176411716172011
1.176411716172012
1.176411716172013
1.176411716172014
1.176411716172014
1.176411716172014
1.176411716172015
1.176411716172016
1.176411716172016
1.176411716172017
1.176411716172018
1.176411716172019
1.17641171617202
1.17641171617202
1.176411716172021
1.176411716172021
1.176411716172021
1.176411716172022
1.176411716172023
1.176411716172023
1.176411716172024
1.176411716172025
1.176411716172027
1.176411716172029
1.176411716172031
1.176411716172031
1.176411716172032
)
;

boundaryField
{
    inlet
    {
        type            calculated;
        value           uniform 1.176395950917642;
    }
    outlet
    {
        type            calculated;
        value           uniform 1.176411716172028;
    }
    frontAndBack
    {
        type            empty;
    }
}


// ************************************************************************* //
