/*--------------------------------*- C++ -*----------------------------------*\
| =========                 |                                                 |
| \\      /  F ield         | OpenFOAM: The Open Source CFD Toolbox           |
|  \\    /   O peration     | Version:  v2012                                 |
|   \\  /    A nd           | Website:  www.openfoam.com                      |
|    \\/     M anipulation  |                                                 |
\*---------------------------------------------------------------------------*/
FoamFile
{
    version     2.0;
    format      ascii;
    class       volScalarField;
    location    "0.003";
    object      T;
}
// * * * * * * * * * * * * * * * * * * * * * * * * * * * * * * * * * * * * * //

dimensions      [0 0 0 1 0 0 0];


internalField   nonuniform List<scalar> 
1000
(
299.9881570344543
299.9899361084883
299.9836273585513
299.9789544461705
299.9744751418637
299.9705724137023
299.9669900504489
299.9637365694472
299.9608917456617
299.9590038592719
299.9585205390465
299.9585532154864
299.9588879653004
299.9597366264037
299.9613800767857
299.963894696714
299.9671945941131
299.9711270305817
299.9755634882414
299.9804156707813
299.9856114910697
299.991073246793
299.9967101675623
300.0024181097403
300.0080823236976
300.0135873158494
300.0188354658719
300.0237687257801
300.0283802377012
300.032679499187
300.0365344715579
300.0393977694298
300.0406259710691
300.0407686309813
300.0407069787249
300.0404853911815
300.0398579845323
300.0386286434813
300.0366205363183
300.0337531646575
300.0300600730988
300.0256709011464
300.0207583686938
300.0154843962564
300.0099748403929
300.0043257083404
299.9986218403644
299.9929498112853
299.9873980493982
299.9820419801106
299.9769195268631
299.9720289530009
299.9674137907658
299.9633907721972
299.9607156958397
299.9598050848616
299.9597431444586
299.9597777068047
299.9599987656255
299.960542707643
299.9616006162817
299.9633343027082
299.9658590851844
299.9692117490815
299.9733403612597
299.9781162580533
299.9833664952789
299.988913928049
299.9946070869512
300.0003293246351
300.0059935122844
300.0115385022967
300.0169337233483
300.0221779120293
300.0272660338323
300.0320897435253
300.0362362672927
300.0389059165153
300.0397837875585
300.0398479250587
300.0398000359057
300.0396263326684
300.0391637693863
300.0382648212325
300.0367727148823
300.0345597655584
300.0315495435833
300.0277370082553
300.0231936568293
300.0180554420394
300.0124977046445
300.0067042799713
300.0008376466547
299.9950173301857
299.9893122736876
299.9837465457248
299.9783157078197
299.9730296319574
299.9680335321773
299.9638356505315
299.9612945919475
299.9605544663705
299.9605169372562
299.9605476459118
299.9607238312694
299.9611516048234
299.9619802035056
299.9633496690277
299.9653830381866
299.9681645296627
299.9717230357086
299.9760211484528
299.980955835704
299.9863739430785
299.9920987869192
299.9979592721124
300.0038152562854
300.0095764417574
300.015209182427
300.0207194310494
300.0260964214986
300.0311916090096
300.0355153549584
300.0382257862522
300.0390930772346
300.0391593014579
300.0391232999011
300.0389896110693
300.038628308365
300.0379178324405
300.0367228370114
300.0349193818805
300.0324094002402
300.0291382552049
300.0251075350529
300.020380350675
300.0150772053045
300.0093603759892
300.0034066771908
299.9973751421501
299.9913814864705
299.9854888887911
299.9797212871297
299.9741162561765
299.968859679821
299.9645087206979
299.9619262161839
299.9611825520813
299.9611404849374
299.9611636188741
299.9613024379181
299.9616473061816
299.9623232064752
299.9634523142666
299.9651503801718
299.9675115571238
299.9705949305698
299.9744116327309
299.9789173700689
299.9840145376226
299.9895643753873
299.9954067135755
300.0013851875161
300.0073742129347
300.0132970582544
300.0191183652245
300.0247933900467
300.0301484617734
300.0346794376579
300.0375421407656
300.0384942689997
300.0385790169543
300.0385529325137
300.0384528104245
300.0381678753636
300.0375942538785
300.0366121267971
300.0351062784277
300.0329755993673
300.0301465134168
300.026584634978
300.0223036226442
300.0173693619013
300.0118958740462
300.0060297887579
299.999925741006
299.993720924573
299.987518247263
299.9813891747098
299.9754198047086
299.9698434533829
299.9652568763019
299.9625339630884
299.9617270418271
299.9616717290339
299.9616891245273
299.9617998465295
299.9620810416995
299.9626411901073
299.9635888909667
299.9650317543446
299.967064655212
299.9697591449604
299.9731521249013
299.9772371984486
299.9819618043248
299.9872310157284
299.9929178469042
299.9988809080075
300.0049879450493
300.0111358161428
300.0172503004405
300.0232459663417
300.0289169072485
300.033741574618
300.0368575100294
300.037959475941
300.0380768207115
300.0380585240757
300.0379828634966
300.0377553977752
300.0372859068703
300.0364677101554
300.0351945211417
300.0333670097332
300.0309034836501
300.0277497372028
300.0238879875073
300.0193436545134
300.0141866880704
300.0085240714278
300.0024842826796
299.9961986217592
299.9897855238349
299.9833486552352
299.9770156325731
299.9710640939601
299.9661344642506
299.9631511063199
299.9622192764227
299.9621419231322
299.962153159943
299.9622398462622
299.9624689406135
299.9629372608255
299.9637419802238
299.9649821689739
299.9667495555924
299.9691204572347
299.9721462984719
299.9758453890878
299.980198198298
299.9851468052015
299.9905991588367
299.9964401771059
300.0025494649439
300.0088181581154
300.0151508770625
300.0214340058767
300.0274384752212
300.0326308670801
300.0361129801137
300.0374518424441
300.0376254692593
300.0376138907502
300.037559234627
300.0373787777875
300.0369932752302
300.036306309216
300.0352202885283
300.0336403103262
300.0314824491704
300.028681690401
300.0252000360608
300.0210337967277
300.0162173608828
300.0108207039772
300.0049407569206
299.9986892533793
299.992180882066
299.9855315362023
299.9788928755827
299.9725692329463
299.9672251907921
299.9638479965615
299.9626893612459
299.9625670101485
299.9625738311183
299.9626406299067
299.9628266325458
299.9632186061064
299.963904855707
299.9649772607023
299.9665237351624
299.9686216901309
299.9713302647447
299.9746833469372
299.9786846667133
299.9833051727045
299.9884836523831
299.9941330980956
300.0001530278947
300.006441819193
300.012898246892
300.0193962864669
300.0257010609108
300.0312890174494
300.035237975589
300.0369313501462
300.0372075781815
300.0372032033085
300.0371667186446
300.0370256557491
300.0367107544988
300.0361333714415
300.0352032805495
300.0338304531605
300.0319315623657
300.0294362233551
300.0262938965535
300.0224806658917
300.0180038123316
300.0129022174779
300.0072425602258
300.0011125209898
299.9946131237612
299.9878583606854
299.9810055189955
299.9743594664378
299.9685733684057
299.9646837456891
299.9631732512377
299.9629661272587
299.9629674488561
299.9630162885211
299.9631641064763
299.9634898921116
299.9640749062893
299.9650047839795
299.966363265471
299.9682269709593
299.9706590606567
299.9737034362984
299.9773800784203
299.9816815131001
299.9865715457117
299.9919886152516
299.9978537902795
300.004078798947
300.0105665522952
300.0171915796237
300.0237299620903
300.0296940961887
300.0341740726087
300.0363526359837
300.036806502952
300.0368174938113
300.0367949265063
300.0366874736061
300.0364330181608
300.0359495881599
300.0351530355833
300.0339578051122
300.0322822314456
300.0300535310259
300.0272135694517
300.0237246253147
300.0195739338533
300.0147758695073
300.0093713321349
300.0034244490008
299.9970181711575
299.9902557322445
299.9832868568599
299.9763962890703
299.97019069384
299.9657131626018
299.9637126337588
299.9633527841889
299.963347127665
299.9633780788993
299.9634918472842
299.9637581831047
299.9642534525742
299.9650584091335
299.9662530391776
299.9679123236984
299.9701011722735
299.9728697292355
299.9762491664027
299.9802479059102
299.9848494965169
299.9900140452126
299.9956828973363
300.0017832048867
300.0082275710132
300.0148989883401
300.0215936203603
300.0278744784028
300.0328812391218
300.0356368783395
300.0363648816216
300.036409191144
300.0363960813964
300.0363170104806
300.0361153982116
300.0357155995124
300.0350407428357
300.0340127844068
300.0325585351665
300.0306152695354
300.0281376683017
300.0251059229366
300.0215354679801
300.0174905557738
300.0131090513709
300.0086551867685
300.0046101632782
300.001680781865
300.0003183560569
300.0000214118929
300.000000333761
300.0000000007998
299.9999999999994
299.9999999999993
299.9999999999993
299.9999999999993
299.9999999999994
299.9999999999995
299.9999999999995
299.9999999999995
299.9999999999995
299.9999999999994
299.9999999999994
299.9999999999993
299.999999999999
299.999999999999
299.999999999999
299.9999999999989
299.999999999999
299.9999999999989
299.9999999999988
299.9999999999989
299.9999999999989
299.999999999999
299.999999999999
299.9999999999991
299.9999999999991
299.9999999999993
299.9999999999992
299.9999999999993
299.9999999999991
299.999999999999
299.9999999999989
299.9999999999989
299.9999999999989
299.9999999999991
299.9999999999991
299.9999999999991
299.9999999999991
299.999999999999
299.999999999999
299.9999999999989
299.9999999999988
299.9999999999987
299.9999999999986
299.9999999999987
299.9999999999988
299.9999999999987
299.9999999999987
299.9999999999987
299.9999999999987
299.9999999999987
299.9999999999987
299.9999999999987
299.9999999999988
299.9999999999989
299.9999999999988
299.9999999999987
299.9999999999988
299.9999999999988
299.9999999999988
299.999999999999
299.9999999999991
299.9999999999991
299.9999999999991
299.9999999999991
299.999999999999
299.999999999999
299.999999999999
299.999999999999
299.999999999999
299.999999999999
299.999999999999
299.9999999999991
299.9999999999991
299.9999999999989
299.9999999999987
299.9999999999986
299.9999999999985
299.9999999999986
299.999999999999
299.9999999999993
299.9999999999994
299.9999999999994
299.9999999999992
299.9999999999991
299.9999999999991
299.999999999999
299.999999999999
299.9999999999989
299.9999999999989
299.999999999999
299.999999999999
299.999999999999
299.9999999999991
299.9999999999991
299.9999999999991
299.999999999999
299.999999999999
299.999999999999
299.9999999999989
299.999999999999
299.999999999999
299.999999999999
299.999999999999
299.999999999999
299.9999999999991
299.9999999999991
299.9999999999991
299.9999999999991
299.9999999999991
299.9999999999992
299.9999999999992
299.9999999999991
299.9999999999992
299.9999999999991
299.9999999999991
299.9999999999991
299.999999999999
299.999999999999
299.9999999999989
299.999999999999
299.999999999999
299.9999999999991
299.9999999999993
299.9999999999995
299.9999999999995
299.9999999999994
299.9999999999994
299.9999999999994
299.9999999999995
299.9999999999996
299.9999999999995
299.9999999999995
299.9999999999993
299.9999999999992
299.9999999999991
299.9999999999992
299.9999999999991
299.9999999999991
299.9999999999991
299.9999999999992
299.9999999999992
299.9999999999992
299.9999999999994
299.9999999999995
299.9999999999997
299.9999999999998
299.9999999999999
299.9999999999999
299.9999999999999
299.9999999999999
299.9999999999998
299.9999999999997
299.9999999999997
299.9999999999995
299.9999999999993
299.9999999999993
299.9999999999992
299.9999999999992
299.9999999999991
299.9999999999991
299.9999999999991
299.9999999999992
299.9999999999991
299.999999999999
299.9999999999989
299.999999999999
299.9999999999989
299.999999999999
299.999999999999
299.9999999999991
299.9999999999992
299.9999999999993
299.9999999999993
299.9999999999993
299.9999999999992
299.999999999999
299.9999999999989
299.9999999999989
299.9999999999989
299.999999999999
299.9999999999991
299.9999999999991
299.9999999999991
299.9999999999991
299.9999999999991
299.999999999999
299.9999999999991
299.9999999999993
299.9999999999993
299.9999999999993
299.9999999999992
299.999999999999
299.9999999999991
299.9999999999993
299.9999999999995
299.9999999999995
299.9999999999995
299.9999999999996
299.9999999999996
299.9999999999994
299.9999999999992
299.999999999999
299.9999999999991
299.999999999999
299.999999999999
299.999999999999
299.9999999999991
299.9999999999991
299.999999999999
299.9999999999991
299.9999999999992
299.9999999999993
299.9999999999993
299.9999999999993
299.9999999999993
299.9999999999993
299.9999999999991
299.9999999999991
299.9999999999989
299.9999999999988
299.9999999999989
299.9999999999989
299.9999999999989
299.9999999999988
299.9999999999988
299.9999999999989
299.9999999999989
299.9999999999989
299.9999999999988
299.9999999999988
299.9999999999989
299.999999999999
299.9999999999991
299.9999999999991
299.999999999999
299.999999999999
299.999999999999
299.9999999999992
299.9999999999993
299.9999999999992
299.9999999999992
299.9999999999992
299.9999999999991
299.9999999999992
299.9999999999994
299.9999999999995
299.9999999999995
299.9999999999995
299.9999999999995
299.9999999999993
299.9999999999991
299.9999999999989
299.999999999999
299.9999999999991
299.9999999999993
299.9999999999993
299.9999999999993
299.9999999999991
299.999999999999
299.999999999999
299.999999999999
299.999999999999
299.9999999999992
299.9999999999993
299.9999999999993
299.9999999999993
299.9999999999992
299.9999999999992
299.9999999999992
299.9999999999993
299.9999999999993
299.9999999999993
299.9999999999993
299.9999999999993
299.9999999999994
299.9999999999995
299.9999999999995
299.9999999999993
299.9999999999993
299.9999999999992
299.9999999999991
299.999999999999
299.999999999999
299.9999999999989
299.999999999999
299.9999999999989
299.9999999999989
299.999999999999
299.999999999999
299.9999999999991
299.9999999999991
299.9999999999992
299.9999999999993
299.9999999999994
299.9999999999994
299.9999999999994
299.9999999999994
299.9999999999994
299.9999999999993
299.9999999999992
299.9999999999992
299.9999999999991
299.9999999999992
299.9999999999993
299.9999999999995
299.9999999999995
299.9999999999995
299.9999999999994
299.9999999999994
299.9999999999994
299.9999999999996
299.9999999999996
299.9999999999995
299.9999999999994
299.9999999999994
299.9999999999995
299.9999999999995
299.9999999999995
299.9999999999995
299.9999999999994
299.9999999999993
299.9999999999993
299.9999999999993
299.9999999999993
299.9999999999993
299.9999999999992
299.999999999999
299.9999999999989
299.9999999999991
299.9999999999992
299.9999999999993
299.9999999999994
299.9999999999994
299.9999999999993
299.9999999999993
299.9999999999993
299.9999999999991
299.999999999999
299.999999999999
299.999999999999
299.9999999999989
299.9999999999989
299.999999999999
299.9999999999989
299.9999999999987
299.9999999999984
299.9999999999982
299.999999999998
299.9999999999978
299.9999999999977
299.9999999999977
299.9999999999978
299.9999999999978
299.9999999999978
299.9999999999978
299.999999999998
299.9999999999978
299.9999999999977
299.9999999999975
299.9999999999974
299.9999999999974
299.9999999999973
299.9999999999973
299.9999999999972
299.9999999999972
299.9999999999969
299.9999999999966
299.9999999999962
299.999999999996
299.9999999999959
299.9999999999959
299.9999999999959
299.9999999999957
299.9999999999956
299.9999999999955
299.9999999999955
299.9999999999953
299.9999999999954
299.9999999999953
299.9999999999953
299.9999999999952
299.9999999999952
299.9999999999952
299.9999999999951
299.999999999995
299.9999999999951
299.9999999999951
299.9999999999952
299.9999999999952
299.9999999999952
299.9999999999951
299.9999999999951
299.9999999999951
299.9999999999951
299.9999999999951
299.9999999999949
299.9999999999948
299.9999999999946
299.9999999999945
299.9999999999945
299.9999999999945
299.9999999999945
299.9999999999945
299.9999999999946
299.9999999999947
299.9999999999946
299.9999999999946
299.9999999999946
299.9999999999945
299.9999999999945
299.9999999999945
299.9999999999945
299.9999999999944
299.9999999999944
299.9999999999944
299.9999999999944
299.9999999999945
299.9999999999947
299.9999999999946
299.9999999999947
299.9999999999948
299.9999999999945
299.9999999999944
299.9999999999945
299.9999999999945
299.9999999999945
299.9999999999945
299.9999999999945
299.9999999999945
299.9999999999944
299.9999999999941
299.999999999994
299.9999999999941
299.9999999999941
299.9999999999942
299.9999999999943
299.9999999999943
299.9999999999941
299.999999999994
299.9999999999939
299.9999999999938
299.9999999999936
299.9999999999933
299.9999999999932
299.999999999993
299.9999999999927
299.9999999999923
299.9999999999921
299.9999999999919
299.9999999999919
299.9999999999918
299.9999999999914
299.9999999999912
299.9999999999909
299.9999999999909
299.9999999999907
299.9999999999904
299.9999999999902
299.9999999999899
299.9999999999897
299.9999999999894
299.9999999999893
299.9999999999891
299.9999999999889
299.9999999999889
299.9999999999888
299.9999999999886
299.9999999999884
299.9999999999882
299.9999999999881
299.9999999999881
299.9999999999879
299.9999999999878
299.9999999999877
299.9999999999876
299.9999999999873
299.9999999999871
299.9999999999871
299.999999999987
299.9999999999869
299.9999999999866
299.9999999999864
299.9999999999862
299.9999999999861
299.9999999999858
299.9999999999857
299.9999999999856
299.9999999999854
299.9999999999852
299.999999999985
299.9999999999849
299.9999999999847
299.9999999999847
299.9999999999845
299.9999999999842
299.9999999999841
299.999999999984
299.9999999999838
299.9999999999837
299.9999999999836
299.9999999999834
299.9999999999832
299.9999999999829
299.9999999999827
299.9999999999825
299.9999999999823
299.9999999999819
299.9999999999816
299.9999999999814
299.9999999999812
299.999999999981
299.9999999999809
299.9999999999807
299.9999999999804
299.9999999999801
299.9999999999799
299.9999999999797
299.9999999999794
299.9999999999791
299.9999999999789
299.9999999999787
299.9999999999784
299.9999999999783
299.9999999999782
299.9999999999782
299.9999999999781
299.9999999999779
299.9999999999779
299.9999999999778
299.9999999999778
299.9999999999777
299.9999999999777
299.9999999999777
299.9999999999777
299.9999999999779
299.9999999999779
299.9999999999781
299.9999999999783
299.9999999999783
299.9999999999785
299.9999999999787
299.9999999999789
299.9999999999787
299.9999999999788
299.9999999999789
299.999999999979
299.9999999999792
299.9999999999795
299.9999999999796
299.9999999999796
299.9999999999795
299.9999999999797
299.9999999999798
299.9999999999799
299.99999999998
299.9999999999802
299.9999999999803
299.9999999999802
299.9999999999802
299.9999999999803
299.9999999999803
299.9999999999804
299.9999999999806
299.9999999999808
299.9999999999809
299.999999999981
299.9999999999811
299.9999999999811
299.9999999999811
299.9999999999811
299.999999999981
299.9999999999809
299.999999999981
299.9999999999808
299.9999999999808
299.9999999999809
299.9999999999816
)
;

boundaryField
{
    inlet
    {
        type            fixedValue;
        value           uniform 300;
    }
    outlet
    {
        type            temperatureOutletNSCBC;
        pInf            101325;
        gamma           1.4;
        etaAc           1;
        fieldInf        1;
        lInf            2.25;
        value           uniform 299.9999999999827;
    }
    frontAndBack
    {
        type            empty;
    }
}


// ************************************************************************* //
