/*--------------------------------*- C++ -*----------------------------------*\
| =========                 |                                                 |
| \\      /  F ield         | OpenFOAM: The Open Source CFD Toolbox           |
|  \\    /   O peration     | Version:  v2012                                 |
|   \\  /    A nd           | Website:  www.openfoam.com                      |
|    \\/     M anipulation  |                                                 |
\*---------------------------------------------------------------------------*/
FoamFile
{
    version     2.0;
    format      ascii;
    class       volVectorField;
    location    "0.003";
    object      U;
}
// * * * * * * * * * * * * * * * * * * * * * * * * * * * * * * * * * * * * * //

dimensions      [0 1 -1 0 0 0 0];


internalField   nonuniform List<vector> 
1000
(
(-0.002797621167684314 0 0)
(-0.03444760266722867 0 0)
(-0.04263703658735239 0 0)
(-0.05778094234970146 0 0)
(-0.07164153314439486 0 0)
(-0.08456710829520282 0 0)
(-0.09560914867787659 0 0)
(-0.1050577638335329 0 0)
(-0.1132146841545874 0 0)
(-0.1186976019777072 0 0)
(-0.1201251306978488 0 0)
(-0.1199599909206683 0 0)
(-0.1191627959773011 0 0)
(-0.1166517528225748 0 0)
(-0.1118184844011063 0 0)
(-0.1044636078765725 0 0)
(-0.09487030558980544 0 0)
(-0.0834736799338107 0 0)
(-0.0706377009427016 0 0)
(-0.05661131641695601 0 0)
(-0.04159234906281249 0 0)
(-0.02579957575729997 0 0)
(-0.009503659579958834 0 0)
(0.006987422183101343 0 0)
(0.02335636608098068 0 0)
(0.03928723601655275 0 0)
(0.05448340811781647 0 0)
(0.06874503601332638 0 0)
(0.08206080758479911 0 0)
(0.09450721663756255 0 0)
(0.1057026200358387 0 0)
(0.1139879258341672 0 0)
(0.1174886404010164 0 0)
(0.117873537644243 0 0)
(0.1177886675708706 0 0)
(0.1170831959393311 0 0)
(0.1152873917872026 0 0)
(0.1117283303705145 0 0)
(0.1059193167921855 0 0)
(0.09762563735837407 0 0)
(0.08694639674994972 0 0)
(0.07425244377466511 0 0)
(0.06004054572316442 0 0)
(0.04478406348416481 0 0)
(0.02885209530603002 0 0)
(0.01251596532657012 0 0)
(-0.003988117349124537 0 0)
(-0.02040233961319513 0 0)
(-0.03645501492560187 0 0)
(-0.05193466625591224 0 0)
(-0.06675752132264066 0 0)
(-0.08092625949071959 0 0)
(-0.0942749241017307 0 0)
(-0.1058797978036641 0 0)
(-0.1136092457342723 0 0)
(-0.1162817060000494 0 0)
(-0.1164858884403088 0 0)
(-0.1163178695182422 0 0)
(-0.1157200574362501 0 0)
(-0.1141340698874596 0 0)
(-0.1110757257879773 0 0)
(-0.1060615247660543 0 0)
(-0.09875857158777639 0 0)
(-0.08905867077205877 0 0)
(-0.07711522764435556 0 0)
(-0.06330271259451604 0 0)
(-0.04811736345964367 0 0)
(-0.03206756839724857 0 0)
(-0.01559658958123518 0 0)
(0.0009508459028480838 0 0)
(0.01732851527826167 0 0)
(0.03337223914723027 0 0)
(0.04898832236994417 0 0)
(0.0641521679472363 0 0)
(0.07885128702180347 0 0)
(0.0928047942530648 0 0)
(0.1048241239407853 0 0)
(0.1125520988095606 0 0)
(0.1150603541937461 0 0)
(0.1152265517003218 0 0)
(0.1151422840097407 0 0)
(0.1146063801263103 0 0)
(0.113278609321875 0 0)
(0.1106771291073162 0 0)
(0.1063607499470968 0 0)
(0.09995956647064698 0 0)
(0.0912543698399552 0 0)
(0.0802279892434988 0 0)
(0.06708479238549522 0 0)
(0.05222123143489598 0 0)
(0.03614850930118028 0 0)
(0.01939439610582493 0 0)
(0.002421809003014323 0 0)
(-0.01441948228123941 0 0)
(-0.03091823157467946 0 0)
(-0.04700752215822879 0 0)
(-0.06271924812256909 0 0)
(-0.078026191447076 0 0)
(-0.09247960535438506 0 0)
(-0.1046003423841128 0 0)
(-0.1119408522322491 0 0)
(-0.1141066817473118 0 0)
(-0.1142386693201851 0 0)
(-0.1141008871962478 0 0)
(-0.1136189343573433 0 0)
(-0.1123734197434169 0 0)
(-0.1099776641906409 0 0)
(-0.1060168334074079 0 0)
(-0.1001352839995699 0 0)
(-0.0920880601467659 0 0)
(-0.08179391919139996 0 0)
(-0.06936278530600785 0 0)
(-0.05508966685683473 0 0)
(-0.03941471143946804 0 0)
(-0.02285299215382021 0 0)
(-0.00590460399051705 0 0)
(0.01102973258614321 0 0)
(0.0276978542206781 0 0)
(0.04399790406030755 0 0)
(0.05993195080978402 0 0)
(0.07547157714045884 0 0)
(0.09021102369422009 0 0)
(0.1027358635461694 0 0)
(0.1105784205973639 0 0)
(0.1130652146944899 0 0)
(0.1132426349036633 0 0)
(0.1131789731529456 0 0)
(0.1127668237433169 0 0)
(0.1117295905460966 0 0)
(0.1096735235981284 0 0)
(0.1062167375921814 0 0)
(0.1010001119692701 0 0)
(0.09374138035596997 0 0)
(0.08428062361153303 0 0)
(0.07262073418108005 0 0)
(0.05894669522828896 0 0)
(0.04360979817008078 0 0)
(0.02707618131228351 0 0)
(0.009852439346081465 0 0)
(-0.00759776538157242 0 0)
(-0.0249315234034931 0 0)
(-0.04196942274883027 0 0)
(-0.05865577918706749 0 0)
(-0.07488057411315227 0 0)
(-0.09008516654674688 0 0)
(-0.1026544599677192 0 0)
(-0.1101201020442929 0 0)
(-0.1122908478296454 0 0)
(-0.1124257784468599 0 0)
(-0.1123241743259541 0 0)
(-0.1119435386092421 0 0)
(-0.1109395864436719 0 0)
(-0.1089853948120179 0 0)
(-0.1057197664354157 0 0)
(-0.1008079457815382 0 0)
(-0.09397673129634146 0 0)
(-0.08505728372358078 0 0)
(-0.07401846434264032 0 0)
(-0.06098559366317181 0 0)
(-0.04623913189226048 0 0)
(-0.0301843900764431 0 0)
(-0.01328835063264396 0 0)
(0.004001671374765515 0 0)
(0.02132917815731166 0 0)
(0.03846646951322673 0 0)
(0.05529927566065872 0 0)
(0.07170362962644121 0 0)
(0.08719708720267985 0 0)
(0.1003183346403677 0 0)
(0.1085973157741059 0 0)
(0.1113322506020931 0 0)
(0.1115684019493619 0 0)
(0.1115281731115352 0 0)
(0.1112144908053175 0 0)
(0.1103980423241531 0 0)
(0.1087376896111444 0 0)
(0.1058967162586626 0 0)
(0.1015409663192646 0 0)
(0.0953791423379889 0 0)
(0.08719682716843574 0 0)
(0.07689327170501858 0 0)
(0.06451008714888444 0 0)
(0.05023991482629411 0 0)
(0.03440965509213459 0 0)
(0.017439719555377 0 0)
(-0.0002191487717777214 0 0)
(-0.01816379775336121 0 0)
(-0.03610022710419891 0 0)
(-0.05383234530728159 0 0)
(-0.07110842772315935 0 0)
(-0.08723682274895528 0 0)
(-0.100491017591339 0 0)
(-0.1083657456792448 0 0)
(-0.1107152777366002 0 0)
(-0.1108849404083666 0 0)
(-0.1108061801729039 0 0)
(-0.1105039405248937 0 0)
(-0.1096848525300507 0 0)
(-0.1080654840055494 0 0)
(-0.1053244892911408 0 0)
(-0.1011507910404486 0 0)
(-0.09526937858136462 0 0)
(-0.08747501665476046 0 0)
(-0.07766156903402367 0 0)
(-0.06584515245217154 0 0)
(-0.05217671072605205 0 0)
(-0.0369342997817984 0 0)
(-0.02048757476045923 0 0)
(-0.003240879713213691 0 0)
(0.01442773376363006 0 0)
(0.03221397722593252 0 0)
(0.04989473018935705 0 0)
(0.06722970898459985 0 0)
(0.08363799609945871 0 0)
(0.09760442733964469 0 0)
(0.1066130413155941 0 0)
(0.1097860522218591 0 0)
(0.1101204592139181 0 0)
(0.1100960186621207 0 0)
(0.1098558352860758 0 0)
(0.109205184552014 0 0)
(0.1078459416431763 0 0)
(0.1054791562792419 0 0)
(0.1017964656270082 0 0)
(0.09651144146844197 0 0)
(0.0893862577130803 0 0)
(0.08026327478305749 0 0)
(0.06909313631674925 0 0)
(0.05595077618583062 0 0)
(0.04103552042468094 0 0)
(0.02465412778913565 0 0)
(0.00718211915435865 0 0)
(-0.01099593658281412 0 0)
(-0.02954231595914109 0 0)
(-0.04816567478710557 0 0)
(-0.06649172430304887 0 0)
(-0.08370324387071937 0 0)
(-0.09795176872844757 0 0)
(-0.1065835942568716 0 0)
(-0.1092925006999912 0 0)
(-0.1095216059042787 0 0)
(-0.1094642730689666 0 0)
(-0.1092310582143416 0 0)
(-0.1085625229527551 0 0)
(-0.1072089684520312 0 0)
(-0.1048814592853133 0 0)
(-0.1012939121124597 0 0)
(-0.09618069865975015 0 0)
(-0.08932257023848278 0 0)
(-0.08057090936901548 0 0)
(-0.06987063830371575 0 0)
(-0.05727789237316389 0 0)
(-0.04296340937980057 0 0)
(-0.02719460127406539 0 0)
(-0.01029983735879095 0 0)
(0.007375234306918212 0 0)
(0.02550938688164416 0 0)
(0.04382114821485729 0 0)
(0.06199015044522335 0 0)
(0.07936442278645414 0 0)
(0.09439118936220617 0 0)
(0.104456536559043 0 0)
(0.1083179535687819 0 0)
(0.108817728079332 0 0)
(0.1088098342196855 0 0)
(0.108630438820269 0 0)
(0.10811620548354 0 0)
(0.1069996145814149 0 0)
(0.1050125598486861 0 0)
(0.1018713267347636 0 0)
(0.09730206187486652 0 0)
(0.09106080389876521 0 0)
(0.08295909297100812 0 0)
(0.07288865599719629 0 0)
(0.0608395227570553 0 0)
(0.04690873729709144 0 0)
(0.03129720687956033 0 0)
(0.01428857917108674 0 0)
(-0.003791165996066579 0 0)
(-0.02261472708412024 0 0)
(-0.0418522135999479 0 0)
(-0.06105955336443112 0 0)
(-0.07934711755436602 0 0)
(-0.09479827779652206 0 0)
(-0.1045707970449973 0 0)
(-0.107931478138678 0 0)
(-0.1082881241449148 0 0)
(-0.1082495755767745 0 0)
(-0.1080709296307011 0 0)
(-0.1075276790313461 0 0)
(-0.1063949851218646 0 0)
(-0.1044100945131289 0 0)
(-0.101307774949724 0 0)
(-0.09683372831452079 0 0)
(-0.09076532951897945 0 0)
(-0.08293120603612007 0 0)
(-0.0732314864570795 0 0)
(-0.06165571105860373 0 0)
(-0.04829079929804242 0 0)
(-0.03331383064520203 0 0)
(-0.01697220322689289 0 0)
(0.0004442062264779841 0 0)
(0.01863500765216958 0 0)
(0.03730466482189286 0 0)
(0.05609783547875587 0 0)
(0.07434145730618542 0 0)
(0.09050900070380753 0 0)
(0.1019231759143557 0 0)
(0.1068127227361431 0 0)
(0.1076112047187388 0 0)
(0.1076227854090606 0 0)
(0.1074945748751616 0 0)
(0.1070953860103361 0 0)
(0.1061825420694883 0 0)
(0.1045126293817014 0 0)
(0.1018224839482188 0 0)
(0.09785220450131914 0 0)
(0.09235983830898503 0 0)
(0.08514176946980295 0 0)
(0.07605305924472877 0 0)
(0.06502465074864415 0 0)
(0.05207568424699348 0 0)
(0.03731809643913539 0 0)
(0.02094748118206209 0 0)
(0.003218656569463413 0 0)
(-0.01558017721992215 0 0)
(-0.03512211558993663 0 0)
(-0.05494678666221219 0 0)
(-0.07416684683286778 0 0)
(-0.09089971529877149 0 0)
(-0.1021553436869654 0 0)
(-0.10653077704598 0 0)
(-0.1071309951122182 0 0)
(-0.1071119145718422 0 0)
(-0.1069838587962331 0 0)
(-0.1065512043363876 0 0)
(-0.1056100749050438 0 0)
(-0.1039179085589075 0 0)
(-0.1012278028620635 0 0)
(-0.09729773059152519 0 0)
(-0.09190705509492381 0 0)
(-0.08487244397432643 0 0)
(-0.07606548736040986 0 0)
(-0.06542925233885764 0 0)
(-0.05298764632104913 0 0)
(-0.03884445081088531 0 0)
(-0.023174205120952 0 0)
(-0.006206065046810069 0 0)
(0.01179899160903506 0 0)
(0.03056012036438285 0 0)
(0.04972296432103042 0 0)
(0.06864175013828853 0 0)
(0.0858941206403943 0 0)
(0.09884304705439131 0 0)
(0.1051384630233181 0 0)
(0.1064592124896559 0 0)
(0.1065040249914 0 0)
(0.1064187870760027 0 0)
(0.1061178379776365 0 0)
(0.1053793184330544 0 0)
(0.1039814388518808 0 0)
(0.1016775267632885 0 0)
(0.09822065353466872 0 0)
(0.09337418801854183 0 0)
(0.08692775443839629 0 0)
(0.07871366171798058 0 0)
(0.06862260152761618 0 0)
(0.05661689470902649 0 0)
(0.04273825786454671 0 0)
(0.02710606467736225 0 0)
(0.009905668728069691 0 0)
(-0.008624749674292682 0 0)
(-0.02818683818781503 0 0)
(-0.04834498938521688 0 0)
(-0.06827471513605118 0 0)
(-0.08622463019027882 0 0)
(-0.09917881840784237 0 0)
(-0.104968230514422 0 0)
(-0.1060066556946225 0 0)
(-0.1060191065192163 0 0)
(-0.1059351827111403 0 0)
(-0.1056032985392896 0 0)
(-0.1048337120733884 0 0)
(-0.1034010988381444 0 0)
(-0.1010723237746868 0 0)
(-0.09761641339611547 0 0)
(-0.09281708525510017 0 0)
(-0.08648579440856977 0 0)
(-0.07847661696629697 0 0)
(-0.06870052210092843 0 0)
(-0.05713463405484098 0 0)
(-0.04382507356755381 0 0)
(-0.02888483245850888 0 0)
(-0.01248548936193919 0 0)
(0.005158106363394865 0 0)
(0.02379515619219121 0 0)
(0.04309389653168248 0 0)
(0.06246313164672992 0 0)
(0.08062863256329579 0 0)
(0.09510204429372573 0 0)
(0.1030711594337996 0 0)
(0.1051859680640877 0 0)
(0.1053200540581167 0 0)
(0.1052653529246984 0 0)
(0.1050468963785571 0 0)
(0.1044608175313015 0 0)
(0.1033050477696917 0 0)
(0.1013530342308155 0 0)
(0.09837983028178389 0 0)
(0.09417362077773901 0 0)
(0.08855298745529462 0 0)
(0.08138683400269014 0 0)
(0.07261784689823224 0 0)
(0.06229064394943307 0 0)
(0.05059104139212748 0 0)
(0.0379177777582895 0 0)
(0.02503511525572659 0 0)
(0.01333492694820704 0 0)
(0.004861679015224573 0 0)
(0.0009208490589384826 0 0)
(6.193426829187366e-05 0 0)
(9.654121447781019e-07 0 0)
(2.315228415829124e-09 0 0)
(-8.703048269304269e-14 0 0)
(-5.831042340440442e-13 0 0)
(-5.395889926974994e-13 0 0)
(-4.264493651963589e-13 0 0)
(-2.175762067328372e-13 0 0)
(-2.088731584635176e-13 0 0)
(-1.740609653862962e-13 0 0)
(-1.653579171169663e-13 0 0)
(-7.832743442381266e-14 0 0)
(-6.092133788518882e-14 0 0)
(5.221828961588874e-14 0 0)
(1.653579171169682e-13 0 0)
(2.088731584635374e-13 0 0)
(2.69794496348732e-13 0 0)
(2.784975446180748e-13 0 0)
(5.395889926974582e-13 0 0)
(5.744011857747293e-13 0 0)
(7.484621511610157e-13 0 0)
(6.875408132758073e-13 0 0)
(8.006804407769009e-13 0 0)
(8.964139717393762e-13 0 0)
(8.964139717393507e-13 0 0)
(8.964139717394473e-13 0 0)
(7.484621511610181e-13 0 0)
(6.440255719292685e-13 0 0)
(5.395889926974782e-13 0 0)
(4.873707030816379e-13 0 0)
(4.090432686577835e-13 0 0)
(3.307158342339438e-13 0 0)
(4.177463169270693e-13 0 0)
(4.960737513509479e-13 0 0)
(6.440255719292282e-13 0 0)
(7.049469098144185e-13 0 0)
(7.397591028916927e-13 0 0)
(7.223530063530997e-13 0 0)
(6.875408132758171e-13 0 0)
(7.39759102891687e-13 0 0)
(7.658682476996142e-13 0 0)
(7.745712959690085e-13 0 0)
(7.049469098144105e-13 0 0)
(6.005103305826696e-13 0 0)
(5.656981375054032e-13 0 0)
(5.134798478895448e-13 0 0)
(4.003402203884589e-13 0 0)
(3.133097376953183e-13 0 0)
(2.088731584635701e-13 0 0)
(3.481219307727202e-14 0 0)
(-1.044365792317431e-13 0 0)
(-2.523883998101051e-13 0 0)
(-3.220127859646312e-13 0 0)
(-2.784975446180243e-13 0 0)
(-3.394188825032475e-13 0 0)
(-4.003402203884415e-13 0 0)
(-3.916371721191237e-13 0 0)
(-3.307158342339288e-13 0 0)
(-3.307158342338952e-13 0 0)
(-3.394188825032448e-13 0 0)
(-1.479518205783462e-13 0 0)
(-3.481219307726314e-14 0 0)
(9.573353096245844e-14 0 0)
(1.392487723090293e-13 0 0)
(1.82764013655609e-13 0 0)
(1.131396275010919e-13 0 0)
(1.218426757703982e-13 0 0)
(-8.703048269303272e-15 0 0)
(-1.479518205783652e-13 0 0)
(-3.307158342339468e-13 0 0)
(-4.351524134657295e-13 0 0)
(-4.26449365196395e-13 0 0)
(-4.090432686577672e-13 0 0)
(-3.394188825032828e-13 0 0)
(-3.046066894259946e-13 0 0)
(-2.959036411566949e-13 0 0)
(-3.220127859646565e-13 0 0)
(-4.003402203884607e-13 0 0)
(-3.307158342339894e-13 0 0)
(-3.307158342339867e-13 0 0)
(-3.655280273112508e-13 0 0)
(-4.438554617350868e-13 0 0)
(-5.134798478895584e-13 0 0)
(-5.395889926975244e-13 0 0)
(-5.83104234044074e-13 0 0)
(-6.70134716737152e-13 0 0)
(-7.049469098144894e-13 0 0)
(-8.267895855848863e-13 0 0)
(-8.703048269314558e-13 0 0)
(-8.96413971739386e-13 0 0)
(-8.703048269313538e-13 0 0)
(-8.96413971739366e-13 0 0)
(-8.616017786621341e-13 0 0)
(-8.006804407768835e-13 0 0)
(-9.051170200087414e-13 0 0)
(-1.053068840587082e-12 0 0)
(-1.148802371549543e-12 0 0)
(-1.183614564626822e-12 0 0)
(-1.43600296443682e-12 0 0)
(-1.418596867898309e-12 0 0)
(-1.383784674821033e-12 0 0)
(-1.383784674820905e-12 0 0)
(-1.288051143858544e-12 0 0)
(-1.235832854242654e-12 0 0)
(-1.27064504731991e-12 0 0)
(-1.166208468088118e-12 0 0)
(-9.573353096244653e-13 0 0)
(-8.006804407768735e-13 0 0)
(-6.875408132757936e-13 0 0)
(-6.788377650064423e-13 0 0)
(-6.266194753906207e-13 0 0)
(-4.960737513509156e-13 0 0)
(-3.568249790418821e-13 0 0)
(-2.69794496348737e-13 0 0)
(-2.088731584635092e-13 0 0)
(-2.001701101942141e-13 0 0)
(-1.392487723090057e-13 0 0)
(8.703048269341685e-15 0 0)
(1.740609653865604e-14 0 0)
(1.218426757704149e-13 0 0)
(2.436853515408215e-13 0 0)
(1.914670619249278e-13 0 0)
(1.392487723090303e-13 0 0)
(2.00170110194257e-13 0 0)
(3.481219307726005e-13 0 0)
(3.568249790418566e-13 0 0)
(3.22012785964623e-13 0 0)
(4.003402203884642e-13 0 0)
(4.438554617350165e-13 0 0)
(3.394188825032492e-13 0 0)
(2.436853515407601e-13 0 0)
(4.351524134655414e-14 0 0)
(-6.96243861545039e-14 0 0)
(-1.218426757703944e-13 0 0)
(-1.13139627501077e-13 0 0)
(-8.703048269326237e-15 0 0)
(-7.832743442381417e-14 0 0)
(-2.436853515408228e-13 0 0)
(-3.307158342339278e-13 0 0)
(-3.655280273112384e-13 0 0)
(-4.177463169271211e-13 0 0)
(-2.872005928874022e-13 0 0)
(-1.392487723090948e-13 0 0)
(-1.566548688476884e-13 0 0)
(-1.218426757704415e-13 0 0)
(-1.653579171169858e-13 0 0)
(-2.175762067328406e-13 0 0)
(-2.088731584635438e-13 0 0)
(-1.740609653862781e-13 0 0)
(-2.088731584635615e-13 0 0)
(-2.69794496348765e-13 0 0)
(-2.17576206732866e-13 0 0)
(-2.697944963487731e-13 0 0)
(-1.914670619249561e-13 0 0)
(-1.392487723090572e-13 0 0)
(-1.479518205783872e-13 0 0)
(-2.26279255002211e-13 0 0)
(-2.959036411567473e-13 0 0)
(-3.394188825032996e-13 0 0)
(-4.873707030815771e-13 0 0)
(-5.744011857748021e-13 0 0)
(-6.527286201986095e-13 0 0)
(-7.397591028916712e-13 0 0)
(-7.571651994303319e-13 0 0)
(-7.223530063530959e-13 0 0)
(-6.527286201985627e-13 0 0)
(-5.656981375054431e-13 0 0)
(-5.744011857746922e-13 0 0)
(-5.482920409667968e-13 0 0)
(-2.349823032714621e-13 0 0)
(-9.573353096240968e-14 0 0)
(-2.610914480790021e-14 0 0)
(1.740609653868612e-14 0 0)
(-5.22182896158188e-14 0 0)
(3.481219307732586e-14 0 0)
(1.740609653870359e-14 0 0)
(-2.610914480787527e-14 0 0)
(-2.175762067328095e-13 0 0)
(-1.218426757703382e-13 0 0)
(-1.479518205782993e-13 0 0)
(-1.392487723089809e-13 0 0)
(-3.481219307722963e-14 0 0)
(-2.610914480792725e-14 0 0)
(1.044365792317879e-13 0 0)
(4.35152413465859e-14 0 0)
(-1.740609653862163e-14 0 0)
(-8.703048269320297e-15 0 0)
(2.610914480796031e-14 0 0)
(-1.740609653859754e-14 0 0)
(-3.481219307724714e-14 0 0)
(1.305457240397176e-13 0 0)
(1.392487723090129e-13 0 0)
(2.436853515408029e-13 0 0)
(2.959036411566979e-13 0 0)
(4.177463169270461e-13 0 0)
(4.699646065429819e-13 0 0)
(4.090432686577515e-13 0 0)
(4.786676548123049e-13 0 0)
(5.221828961588754e-13 0 0)
(3.916371721191266e-13 0 0)
(2.610914480794536e-13 0 0)
(3.046066894260225e-13 0 0)
(2.349823032714848e-13 0 0)
(2.61091448079419e-13 0 0)
(2.262792550021714e-13 0 0)
(2.523883998101226e-13 0 0)
(2.784975446180574e-13 0 0)
(1.827640136555909e-13 0 0)
(1.044365792317633e-13 0 0)
(1.47951820578357e-13 0 0)
(2.088731584635386e-13 0 0)
(6.96243861545258e-14 0 0)
(9.573353096246499e-14 0 0)
(1.914670619249068e-13 0 0)
(3.046066894260033e-13 0 0)
(2.262792550021444e-13 0 0)
(1.392487723090289e-13 0 0)
(2.175762067328716e-13 0 0)
(2.610914480794369e-13 0 0)
(4.003402203884857e-13 0 0)
(5.047767996202833e-13 0 0)
(4.699646065430054e-13 0 0)
(4.264493651964284e-13 0 0)
(3.829341238497811e-13 0 0)
(4.090432686577823e-13 0 0)
(3.394188825032863e-13 0 0)
(2.872005928873598e-13 0 0)
(1.13139627501122e-13 0 0)
(1.827640136556222e-13 0 0)
(2.001701101942652e-13 0 0)
(2.872005928874116e-13 0 0)
(3.394188825032283e-13 0 0)
(2.872005928874049e-13 0 0)
(1.566548688476482e-13 0 0)
(1.131396275010588e-13 0 0)
(9.57335309624534e-14 0 0)
(1.566548688476705e-13 0 0)
(2.088731584635759e-13 0 0)
(2.697944963487551e-13 0 0)
(2.262792550021614e-13 0 0)
(3.133097376953233e-13 0 0)
(4.090432686578101e-13 0 0)
(4.525585100043411e-13 0 0)
(4.873707030816653e-13 0 0)
(6.527286201986216e-13 0 0)
(5.656981375055061e-13 0 0)
(5.134798478895852e-13 0 0)
(5.047767996202109e-13 0 0)
(4.264493651964495e-13 0 0)
(3.568249790419433e-13 0 0)
(3.829341238498559e-13 0 0)
(4.699646065430415e-13 0 0)
(2.784975446181293e-13 0 0)
(2.262792550022252e-13 0 0)
(1.914670619249756e-13 0 0)
(1.914670619249433e-13 0 0)
(1.479518205783642e-13 0 0)
(1.044365792317976e-13 0 0)
(6.962438615452644e-14 0 0)
(3.481219307725901e-14 0 0)
(8.703048269311628e-15 0 0)
(2.610914480794887e-14 0 0)
(6.09213378852251e-14 0 0)
(8.703048269316049e-14 0 0)
(1.218426757704281e-13 0 0)
(6.962438615451911e-14 0 0)
(4.351524134657441e-14 0 0)
(-3.481219307725253e-14 0 0)
(-1.566548688476455e-13 0 0)
(-2.436853515407718e-13 0 0)
(-2.872005928873402e-13 0 0)
(-3.481219307724976e-13 0 0)
(-1.827640136555602e-13 0 0)
(-2.349823032714672e-13 0 0)
(-3.046066894259743e-13 0 0)
(-3.568249790418636e-13 0 0)
(-5.221828961588629e-13 0 0)
(-7.310560546224451e-13 0 0)
(-8.354926338542005e-13 0 0)
(-9.921475027018083e-13 0 0)
(-1.070474937125738e-12 0 0)
(-1.070474937125721e-12 0 0)
(-1.157505419818878e-12 0 0)
(-1.183614564626812e-12 0 0)
(-1.122693226741459e-12 0 0)
(-1.122693226741656e-12 0 0)
(-1.079177985394991e-12 0 0)
(-1.166208468088093e-12 0 0)
(-1.235832854242686e-12 0 0)
(-1.053068840587088e-12 0 0)
(-9.138200682780455e-13 0 0)
(-7.571651994303551e-13 0 0)
(-7.484621511609778e-13 0 0)
(-6.701347167372026e-13 0 0)
(-5.744011857747974e-13 0 0)
(-3.916371721191285e-13 0 0)
(-1.8276401365561e-13 0 0)
(8.703048269314318e-15 0 0)
(2.001701101942378e-13 0 0)
(3.394188825032801e-13 0 0)
(3.220127859646237e-13 0 0)
(2.697944963487917e-13 0 0)
(1.914670619249683e-13 0 0)
(1.566548688477113e-13 0 0)
(5.221828961593831e-14 0 0)
(1.218426757704547e-13 0 0)
(1.392487723090752e-13 0 0)
(2.784975446181033e-13 0 0)
(2.436853515408366e-13 0 0)
(2.872005928874038e-13 0 0)
(4.873707030816682e-13 0 0)
(5.395889926974875e-13 0 0)
(5.569950892361769e-13 0 0)
(3.307158342339801e-13 0 0)
(3.916371721191779e-13 0 0)
(3.046066894260382e-13 0 0)
(1.914670619249196e-13 0 0)
(2.088731584635739e-13 0 0)
(2.088731584635416e-13 0 0)
(1.566548688476503e-13 0 0)
(2.001701101942265e-13 0 0)
(2.088731584635253e-13 0 0)
(2.001701101942304e-13 0 0)
(2.17576206732844e-13 0 0)
(1.65357917116949e-13 0 0)
(6.962438615448892e-14 0 0)
(6.962438615448766e-14 0 0)
(2.088731584634897e-13 0 0)
(1.653579171169461e-13 0 0)
(-1.740609653863536e-14 0 0)
(-1.385867213507858e-26 0 0)
(-8.703048269344724e-15 0 0)
(1.392487723089805e-13 0 0)
(1.827640136555801e-13 0 0)
(3.307158342339116e-13 0 0)
(2.697944963487037e-13 0 0)
(3.655280273112021e-13 0 0)
(6.614316684678709e-13 0 0)
(6.788377650064994e-13 0 0)
(7.484621511610225e-13 0 0)
(6.701347167371471e-13 0 0)
(8.790078752006429e-13 0 0)
(1.087881033664351e-12 0 0)
(1.383784674820808e-12 0 0)
(1.688391364246989e-12 0 0)
(1.905967570979831e-12 0 0)
(2.062622439827488e-12 0 0)
(2.341119984445657e-12 0 0)
(2.654429722140578e-12 0 0)
(3.028660797721716e-12 0 0)
(3.20272176310746e-12 0 0)
(3.411594921571214e-12 0 0)
(3.516031500803051e-12 0 0)
(3.794529045421061e-12 0 0)
(3.925074769461011e-12 0 0)
(4.081729638308526e-12 0 0)
(4.133947927924285e-12 0 0)
(4.2818997485025e-12 0 0)
(4.48206985869739e-12 0 0)
(4.72575521023724e-12 0 0)
(4.86500398254685e-12 0 0)
(5.047767996202619e-12 0 0)
(5.256641154666246e-12 0 0)
(5.256641154666008e-12 0 0)
(5.543841747552637e-12 0 0)
(5.735308809478899e-12 0 0)
(6.118242933327805e-12 0 0)
(6.448958767561952e-12 0 0)
(6.901517277566494e-12 0 0)
(7.423700173725688e-12 0 0)
(8.050319649115921e-12 0 0)
(8.720454365853269e-12 0 0)
(9.190418972396105e-12 0 0)
(9.747414061631664e-12 0 0)
(1.000850550971271e-11 0 0)
(1.023478476471293e-11 0 0)
(1.032181524740745e-11 0 0)
(1.05655005989481e-11 0 0)
(1.087881033664311e-11 0 0)
(1.104416825376059e-11 0 0)
(1.1392290184533e-11 0 0)
(1.134877494318643e-11 0 0)
(1.160986639126402e-11 0 0)
(1.169689687395923e-11 0 0)
(1.181003650145994e-11 0 0)
(1.200150356338472e-11 0 0)
(1.210594014261707e-11 0 0)
(1.220167367357951e-11 0 0)
(1.212334623915548e-11 0 0)
(1.212334623915311e-11 0 0)
(1.215815843223297e-11 0 0)
(1.231481330108021e-11 0 0)
(1.246276512166091e-11 0 0)
(1.264552913531403e-11 0 0)
(1.27238565697388e-11 0 0)
(1.29327297281995e-11 0 0)
(1.306327545224131e-11 0 0)
(1.314160288666539e-11 0 0)
(1.321993032108959e-11 0 0)
(1.301105716262543e-11 0 0)
(1.308068154877984e-11 0 0)
(1.315900898320427e-11 0 0)
(1.320252422454826e-11 0 0)
(1.321122727281991e-11 0 0)
(1.312419679012698e-11 0 0)
(1.309808764531913e-11 0 0)
(1.311549374185706e-11 0 0)
(1.332436690032056e-11 0 0)
(1.33330699485905e-11 0 0)
(1.334177299685961e-11 0 0)
(1.333306994859006e-11 0 0)
(1.320252422454842e-11 0 0)
(1.304586935570327e-11 0 0)
(1.29327297282015e-11 0 0)
(1.284569924550871e-11 0 0)
(1.266293523185334e-11 0 0)
(1.2689044376661e-11 0 0)
(1.254109255608267e-11 0 0)
(1.2427952928579e-11 0 0)
(1.241054683204356e-11 0 0)
(1.249757731473585e-11 0 0)
(1.254979560435204e-11 0 0)
(1.250628036300517e-11 0 0)
(1.260201389396764e-11 0 0)
(1.254109255608298e-11 0 0)
(1.264552913531416e-11 0 0)
(1.268904437666164e-11 0 0)
(1.270645047319711e-11 0 0)
(1.275866876281553e-11 0 0)
(1.274126266627663e-11 0 0)
(1.276737181108542e-11 0 0)
(1.289791753512428e-11 0 0)
(1.306327545224117e-11 0 0)
(1.305457240397259e-11 0 0)
(1.331566385204961e-11 0 0)
(1.348102176916876e-11 0 0)
(1.366378578282435e-11 0 0)
(1.367248883109369e-11 0 0)
(1.38204406516717e-11 0 0)
(1.415985953417501e-11 0 0)
(1.441224793398536e-11 0 0)
(1.476036986475842e-11 0 0)
(1.502146131283758e-11 0 0)
(1.529995885745261e-11 0 0)
(1.556975335380513e-11 0 0)
(1.600490576726984e-11 0 0)
(1.649227647035187e-11 0 0)
(1.704056851131871e-11 0 0)
(1.786735809690317e-11 0 0)
(1.831121355863919e-11 0 0)
(1.916411228902864e-11 0 0)
(1.976462261961461e-11 0 0)
(2.043475733635133e-11 0 0)
(2.108748595655088e-11 0 0)
(2.15313414182851e-11 0 0)
(2.224499137636882e-11 0 0)
(2.284550170695317e-11 0 0)
(2.364618214772898e-11 0 0)
(2.418577114042728e-11 0 0)
(2.488201500196805e-11 0 0)
(2.560436800832521e-11 0 0)
(2.633542406294723e-11 0 0)
(2.690982524872256e-11 0 0)
(2.740589900007354e-11 0 0)
(2.801511237892574e-11 0 0)
(2.845896784066086e-11 0 0)
(2.89985568333538e-11 0 0)
(2.939019400547763e-11 0 0)
(2.986015861202009e-11 0 0)
(3.041715370125695e-11 0 0)
(3.074786953549168e-11 0 0)
(3.106988232145503e-11 0 0)
(3.12787554799194e-11 0 0)
(3.170520484511476e-11 0 0)
(3.174872008646304e-11 0 0)
(3.221868469299964e-11 0 0)
(3.250588528589309e-11 0 0)
(3.291492855455068e-11 0 0)
(3.335878401628584e-11 0 0)
(3.362857851263461e-11 0 0)
(3.410724616744713e-11 0 0)
(3.467294430495346e-11 0 0)
(3.549103084226414e-11 0 0)
(3.590877715919546e-11 0 0)
(3.663983321381811e-11 0 0)
(3.713590696516915e-11 0 0)
(3.777122948882589e-11 0 0)
(3.836303677114279e-11 0 0)
(3.882429832941658e-11 0 0)
(3.934648122557648e-11 0 0)
(3.986866412172997e-11 0 0)
(4.052139274193433e-11 0 0)
(4.115671526559243e-11 0 0)
(4.189647436848627e-11 0 0)
(4.254920298867926e-11 0 0)
(4.294954320907268e-11 0 0)
(4.329766513984628e-11 0 0)
(4.361097487753977e-11 0 0)
(4.403742424273435e-11 0 0)
(4.422018825639192e-11 0 0)
(4.469015286293615e-11 0 0)
(4.496865040755425e-11 0 0)
(4.530806929005354e-11 0 0)
(4.583895523448603e-11 0 0)
(4.648298080641545e-11 0 0)
(4.701386675084379e-11 0 0)
(4.754475269527213e-11 0 0)
(4.828451179815974e-11 0 0)
(4.88589129839391e-11 0 0)
(4.960737513510139e-11 0 0)
(5.026010375529795e-11 0 0)
(5.086931713414786e-11 0 0)
(5.141760917511722e-11 0 0)
(5.199201036089336e-11 0 0)
(5.270566031897743e-11 0 0)
(5.342801332532602e-11 0 0)
(5.44027547314943e-11 0 0)
(5.501196811034658e-11 0 0)
(5.583875769593164e-11 0 0)
(5.634353449554714e-11 0 0)
(5.701366921228957e-11 0 0)
(5.761417954287249e-11 0 0)
(5.832782950095769e-11 0 0)
(5.903277641076593e-11 0 0)
(5.985956599635491e-11 0 0)
(6.070376167848137e-11 0 0)
(6.133038115386944e-11 0 0)
(6.192218843617881e-11 0 0)
(6.220938902907182e-11 0 0)
(6.252269876676735e-11 0 0)
(6.269675973215345e-11 0 0)
(6.266194753907641e-11 0 0)
(6.264454144253343e-11 0 0)
(6.2661947539075e-11 0 0)
(6.257491705638451e-11 0 0)
(6.247918352541939e-11 0 0)
(6.252269876676167e-11 0 0)
(6.239215304272876e-11 0 0)
(6.211365549810789e-11 0 0)
(6.180904880868313e-11 0 0)
(6.139130249175051e-11 0 0)
(6.103447751271374e-11 0 0)
(6.079079216117287e-11 0 0)
(6.057321595444e-11 0 0)
(6.015546963750727e-11 0 0)
(5.996400257558775e-11 0 0)
(5.974642636885477e-11 0 0)
(5.964198978962296e-11 0 0)
(5.934608614846178e-11 0 0)
(5.89544489763456e-11 0 0)
(5.886741849365355e-11 0 0)
(5.844096912845706e-11 0 0)
(5.826690816306653e-11 0 0)
(5.79448953771048e-11 0 0)
(5.769250697729578e-11 0 0)
(5.746622772229354e-11 0 0)
(5.723124541902198e-11 0 0)
(5.695274787439881e-11 0 0)
(5.652629850920743e-11 0 0)
(5.623909791632092e-11 0 0)
(5.578653940631437e-11 0 0)
(5.548193271688459e-11 0 0)
(5.500326506207784e-11 0 0)
(5.443756692457153e-11 0 0)
(5.387186878706492e-11 0 0)
(5.354985600109523e-11 0 0)
(5.350634075975555e-11 0 0)
(5.336709198744561e-11 0 0)
(5.338449808398456e-11 0 0)
(5.317562492551668e-11 0 0)
(5.301897005667199e-11 0 0)
(5.294934567051842e-11 0 0)
(5.289712738090315e-11 0 0)
(5.269695727070336e-11 0 0)
(5.236624143647325e-11 0 0)
(5.207904084358691e-11 0 0)
(5.156556099569592e-11 0 0)
(5.134798478896311e-11 0 0)
(5.106948724434579e-11 0 0)
(5.084320798934279e-11 0 0)
)
;

boundaryField
{
    inlet
    {
        type            zeroGradient;
    }
    outlet
    {
        type            velocityOutletNSCBCx;
        pInf            101325;
        gamma           1.4;
        etaAc           1;
        fieldInf        (-1 0 0);
        lInf            2.25;
        value           uniform (5.076705350111951e-11 0 0);
    }
    frontAndBack
    {
        type            empty;
    }
}


// ************************************************************************* //
