/*--------------------------------*- C++ -*----------------------------------*\
| =========                 |                                                 |
| \\      /  F ield         | OpenFOAM: The Open Source CFD Toolbox           |
|  \\    /   O peration     | Version:  v2012                                 |
|   \\  /    A nd           | Website:  www.openfoam.com                      |
|    \\/     M anipulation  |                                                 |
\*---------------------------------------------------------------------------*/
FoamFile
{
    version     2.0;
    format      ascii;
    class       volVectorField;
    location    "0.003";
    object      UMean;
}
// * * * * * * * * * * * * * * * * * * * * * * * * * * * * * * * * * * * * * //

dimensions      [0 1 -1 0 0 0 0];


internalField   nonuniform List<vector> 
1000
(
(-7.692797912042706e-05 0 0)
(6.037904057588427e-05 0 0)
(0.0001143417565290764 0 0)
(0.0002405508290301144 0 0)
(0.0003876386914041146 0 0)
(0.0005694517858548879 0 0)
(0.0007829773092794259 0 0)
(0.001020125563869122 0 0)
(0.001281642834182379 0 0)
(0.00155922520455056 0 0)
(0.001846951672315989 0 0)
(0.00213467552806177 0 0)
(0.002422403243285352 0 0)
(0.002705175700613551 0 0)
(0.002980880603281282 0 0)
(0.003241293437230075 0 0)
(0.003483110171741741 0 0)
(0.003699114206328802 0 0)
(0.003887533099391939 0 0)
(0.004043018571033012 0 0)
(0.004164873521894274 0 0)
(0.004248988606241931 0 0)
(0.004295649817124127 0 0)
(0.004302135068069307 0 0)
(0.004270000318430446 0 0)
(0.004198173964748892 0 0)
(0.00408968743536703 0 0)
(0.003944923286213021 0 0)
(0.003767589977493514 0 0)
(0.00355834014733239 0 0)
(0.003320878792276065 0 0)
(0.00305813597173421 0 0)
(0.002780506838995696 0 0)
(0.002497526919507827 0 0)
(0.002215056389848701 0 0)
(0.001933107928227032 0 0)
(0.001654142037690796 0 0)
(0.00138110635309701 0 0)
(0.001118904843341017 0 0)
(0.000872945041177405 0 0)
(0.0006492833252862435 0 0)
(0.0004530575265957075 0 0)
(0.0002888050234883033 0 0)
(0.0001594949565578493 0 0)
(6.747560587955998e-05 0 0)
(1.397082028335955e-05 0 0)
(-1.091605441317786e-07 0 0)
(2.5253496342662e-05 0 0)
(8.970153991709354e-05 0 0)
(0.0001920840826773609 0 0)
(0.0003309929095646367 0 0)
(0.0005048040756905204 0 0)
(0.0007119540542273569 0 0)
(0.0009499192846680641 0 0)
(0.001212678399320606 0 0)
(0.001488949832345052 0 0)
(0.001768428319187145 0 0)
(0.002047773029019703 0 0)
(0.002326467124273107 0 0)
(0.00260240599631279 0 0)
(0.002873442209157406 0 0)
(0.003134863320451811 0 0)
(0.003382382789952022 0 0)
(0.003609685884149445 0 0)
(0.003811918383663924 0 0)
(0.003983325091601686 0 0)
(0.004120651928702873 0 0)
(0.00422037810967659 0 0)
(0.004281593642152523 0 0)
(0.004302892838990675 0 0)
(0.004285000270782653 0 0)
(0.004227816372386704 0 0)
(0.004132921847584395 0 0)
(0.004000699048486507 0 0)
(0.003832795586946654 0 0)
(0.003629831658546505 0 0)
(0.003395122861392996 0 0)
(0.003134897134332394 0 0)
(0.002861646213057763 0 0)
(0.002585069044843607 0 0)
(0.002308800160958126 0 0)
(0.002033102940947839 0 0)
(0.001759518886257934 0 0)
(0.001490359531775723 0 0)
(0.001229119553794931 0 0)
(0.0009802477468925839 0 0)
(0.0007489749541311843 0 0)
(0.0005408212763106372 0 0)
(0.000361168658108862 0 0)
(0.0002146752837404598 0 0)
(0.0001049962211885339 0 0)
(3.449403188002671e-05 0 0)
(4.381830453383453e-06 0 0)
(1.47996631573716e-05 0 0)
(6.527347214086813e-05 0 0)
(0.0001549110367512053 0 0)
(0.0002828246088051755 0 0)
(0.0004480825115171413 0 0)
(0.0006494867729732684 0 0)
(0.0008838536970778729 0 0)
(0.001143282698550658 0 0)
(0.001414930334774876 0 0)
(0.001689063930358747 0 0)
(0.001963046858342351 0 0)
(0.002236509538961208 0 0)
(0.002507805719468219 0 0)
(0.002775240477891721 0 0)
(0.003035141824447275 0 0)
(0.003283920790425821 0 0)
(0.003516231857698921 0 0)
(0.003727305003700647 0 0)
(0.003911353891346532 0 0)
(0.004064040534171137 0 0)
(0.004180885023622604 0 0)
(0.00425953598347856 0 0)
(0.004297856378417069 0 0)
(0.004295801093630603 0 0)
(0.004253166394050215 0 0)
(0.00417119124059896 0 0)
(0.004050238070236624 0 0)
(0.003891595684157849 0 0)
(0.003695974111939612 0 0)
(0.003466886036952153 0 0)
(0.003211534337451331 0 0)
(0.002943032694904868 0 0)
(0.002671277880781132 0 0)
(0.002399737347571069 0 0)
(0.002128614507941981 0 0)
(0.001859155343450342 0 0)
(0.001593151697981608 0 0)
(0.001333476865409719 0 0)
(0.001083763823786589 0 0)
(0.0008485811093496525 0 0)
(0.0006329070557342676 0 0)
(0.000442088251186756 0 0)
(0.0002811456500403321 0 0)
(0.0001546383252707305 0 0)
(6.603861359494615e-05 0 0)
(1.777758674505976e-05 0 0)
(1.098648252317599e-05 0 0)
(4.593878388542611e-05 0 0)
(0.000122141683098405 0 0)
(0.0002389242131464194 0 0)
(0.0003953301068243904 0 0)
(0.0005899677199416761 0 0)
(0.0008190709195177636 0 0)
(0.001073977272285548 0 0)
(0.001341229516486219 0 0)
(0.001611020947851126 0 0)
(0.001880705077484495 0 0)
(0.00214998394439061 0 0)
(0.002417531580488689 0 0)
(0.0026819403493019 0 0)
(0.00294017752224046 0 0)
(0.003189179061581697 0 0)
(0.003424330717607086 0 0)
(0.003641266502996759 0 0)
(0.003834543475455812 0 0)
(0.00399959697890158 0 0)
(0.004131523630079276 0 0)
(0.004227011910088781 0 0)
(0.004282981195106342 0 0)
(0.00429824898092543 0 0)
(0.004271834140667659 0 0)
(0.004204280418858396 0 0)
(0.004095720312416027 0 0)
(0.003947317863423105 0 0)
(0.003760009799468183 0 0)
(0.003537555509194336 0 0)
(0.003287583399358994 0 0)
(0.003023548093608764 0 0)
(0.002755885265039416 0 0)
(0.00248833223510358 0 0)
(0.002221067443913691 0 0)
(0.001955105837326244 0 0)
(0.001691905724897945 0 0)
(0.001433862591441976 0 0)
(0.001184076486819231 0 0)
(0.0009465136685509329 0 0)
(0.0007256595659838673 0 0)
(0.0005265112972984081 0 0)
(0.0003540552002083142 0 0)
(0.0002131576049446986 0 0)
(0.0001079648829179922 0 0)
(4.187113975513263e-05 0 0)
(1.709143045297243e-05 0 0)
(3.496181275257679e-05 0 0)
(9.582188389577716e-05 0 0)
(0.00019956501367401 0 0)
(0.0003454405527893644 0 0)
(0.0005319604027530984 0 0)
(0.0007549249549337317 0 0)
(0.001005060276397845 0 0)
(0.001268289221080856 0 0)
(0.001534353649558154 0 0)
(0.001800368601955078 0 0)
(0.002066078753944872 0 0)
(0.002330370124669271 0 0)
(0.00259209509066864 0 0)
(0.002848654042499778 0 0)
(0.003097426930547455 0 0)
(0.003334343684063104 0 0)
(0.003555477657323529 0 0)
(0.003755766640237614 0 0)
(0.00393074827677598 0 0)
(0.004075402354018934 0 0)
(0.004185926512760188 0 0)
(0.004258537554021631 0 0)
(0.004291106880040214 0 0)
(0.004281734367168049 0 0)
(0.004230074323552435 0 0)
(0.004135675885765886 0 0)
(0.003999302618318403 0 0)
(0.003821847658666783 0 0)
(0.003607103347943341 0 0)
(0.003362929790815814 0 0)
(0.003103147514971991 0 0)
(0.002839073917005247 0 0)
(0.002574967346866397 0 0)
(0.002311060487683525 0 0)
(0.002048188167514163 0 0)
(0.00178754961350733 0 0)
(0.001531174918797629 0 0)
(0.001281730184467427 0 0)
(0.001042692147195782 0 0)
(0.0008180897680831963 0 0)
(0.0006125311087396952 0 0)
(0.0004308083307302461 0 0)
(0.0002778095189408612 0 0)
(0.0001580260657145323 0 0)
(7.545587825161147e-05 0 0)
(3.319438676753943e-05 0 0)
(3.353906274191664e-05 0 0)
(7.781894555967835e-05 0 0)
(0.0001667034328052453 0 0)
(0.000300029008724976 0 0)
(0.0004765362713895941 0 0)
(0.0006920238270772673 0 0)
(0.0009368375745753804 0 0)
(0.001196215090910367 0 0)
(0.001458945641620853 0 0)
(0.001721730414576524 0 0)
(0.0019842738673215 0 0)
(0.002245681329578398 0 0)
(0.002504959954998123 0 0)
(0.002759888101824571 0 0)
(0.003008158911017877 0 0)
(0.003246189294696966 0 0)
(0.003470413249354726 0 0)
(0.003676190585501067 0 0)
(0.003859232682566237 0 0)
(0.004014614891687109 0 0)
(0.004138273746808461 0 0)
(0.004226027431302502 0 0)
(0.004275018395538661 0 0)
(0.004282584738398902 0 0)
(0.004247482555856887 0 0)
(0.004168549729747666 0 0)
(0.004045914143502724 0 0)
(0.00388010673984854 0 0)
(0.003674597209984926 0 0)
(0.003437098865429814 0 0)
(0.003181708121858685 0 0)
(0.002920931835282973 0 0)
(0.002659928983762578 0 0)
(0.002399038200198334 0 0)
(0.002138971865987121 0 0)
(0.001880699592864527 0 0)
(0.00162598582460517 0 0)
(0.001377125242311295 0 0)
(0.001137213327360217 0 0)
(0.0009098471236789606 0 0)
(0.0006992792435535927 0 0)
(0.0005100143603813571 0 0)
(0.0003468473930253214 0 0)
(0.0002143729481029882 0 0)
(0.0001169621160603331 0 0)
(5.831316860889639e-05 0 0)
(4.151810753912582e-05 0 0)
(6.878977396417939e-05 0 0)
(0.0001416567086937342 0 0)
(0.0002607019627310677 0 0)
(0.0004252181678737993 0 0)
(0.0006314120207745058 0 0)
(0.0008697894169787711 0 0)
(0.001125088540311428 0 0)
(0.00138473623824987 0 0)
(0.001644597237832444 0 0)
(0.001904261155162478 0 0)
(0.002163034022113623 0 0)
(0.002420024230344047 0 0)
(0.002673360331591501 0 0)
(0.002920950381543352 0 0)
(0.003159664571053676 0 0)
(0.003386200280297814 0 0)
(0.003596362043271743 0 0)
(0.003786018299401848 0 0)
(0.003950486635259488 0 0)
(0.004085549882329189 0 0)
(0.004186886826223444 0 0)
(0.004251071299772706 0 0)
(0.004274924992837169 0 0)
(0.004256360997592127 0 0)
(0.004193589340480463 0 0)
(0.00408594900773018 0 0)
(0.003933483019391159 0 0)
(0.003738937604386088 0 0)
(0.003509485729827682 0 0)
(0.003259018516103386 0 0)
(0.003001477054815975 0 0)
(0.002743313347081723 0 0)
(0.002485233364172345 0 0)
(0.00222775500839012 0 0)
(0.001971750510855538 0 0)
(0.001718663685437836 0 0)
(0.001470582244579617 0 0)
(0.00123018282686851 0 0)
(0.001000786755588449 0 0)
(0.0007862228881387423 0 0)
(0.0005907846193955143 0 0)
(0.0004190156574536455 0 0)
(0.0002755599753922376 0 0)
(0.0001649059212303284 0 0)
(9.120514243724556e-05 0 0)
(5.808415830717233e-05 0 0)
(6.85274054024476e-05 0 0)
(0.0001248055466970593 0 0)
(0.0002283060394587895 0 0)
(0.000379028931928226 0 0)
(0.0005739826068670747 0 0)
(0.0008044354702962285 0 0)
(0.001055076178419735 0 0)
(0.001311707318905328 0 0)
(0.001568824403305125 0 0)
(0.001825803231864775 0 0)
(0.00208208372178126 0 0)
(0.002336913962165643 0 0)
(0.002588655437004754 0 0)
(0.002835464638345822 0 0)
(0.003074516903832409 0 0)
(0.003302826724572809 0 0)
(0.003516503622440951 0 0)
(0.003711691882976462 0 0)
(0.003883870693806331 0 0)
(0.00402889405588599 0 0)
(0.004142304575889221 0 0)
(0.0042204218343127 0 0)
(0.004259581010474945 0 0)
(0.004257158015457708 0 0)
(0.004210678404497092 0 0)
(0.004118876457085339 0 0)
(0.003981068734150535 0 0)
(0.003799236431878484 0 0)
(0.003579413584122634 0 0)
(0.003334867161161565 0 0)
(0.003080656012054364 0 0)
(0.002825212129470835 0 0)
(0.002569738897023219 0 0)
(0.002314766526842688 0 0)
(0.002060908003358519 0 0)
(0.001809505548601406 0 0)
(0.00156229500384427 0 0)
(0.00132176851533423 0 0)
(0.001090833244264886 0 0)
(0.0008731114563322784 0 0)
(0.0006725127917325394 0 0)
(0.0004934754603320851 0 0)
(0.0003404438586710429 0 0)
(0.0002180651204417542 0 0)
(0.000130619201477429 0 0)
(8.223545462884132e-05 0 0)
(7.634953645098321e-05 0 0)
(0.0001159807621731315 0 0)
(0.0002031323367575146 0 0)
(0.0003386825827940412 0 0)
(0.0005205561665645643 0 0)
(0.0007413950572275479 0 0)
(0.0009864027902341112 0 0)
(0.001239898039497341 0 0)
(0.001494356929457529 0 0)
(0.001748760480796174 0 0)
(0.002002628129619284 0 0)
(0.002255344237161062 0 0)
(0.002505482635298196 0 0)
(0.002751393610039786 0 0)
(0.002990542551226878 0 0)
(0.003220179650699561 0 0)
(0.003436734926030667 0 0)
(0.003636556938418375 0 0)
(0.003815371406862603 0 0)
(0.003969079712113467 0 0)
(0.004093266900289415 0 0)
(0.004184027601504506 0 0)
(0.004237457961605182 0 0)
(0.004250427691066892 0 0)
(0.004220016346308992 0 0)
(0.004144298487662834 0 0)
(0.004022015091375538 0 0)
(0.003854183738140153 0 0)
(0.003645642437629928 0 0)
(0.003408351955865014 0 0)
(0.003158151794582213 0 0)
(0.002905588493132081 0 0)
(0.002652936024858033 0 0)
(0.002400626953841785 0 0)
(0.002149203648083881 0 0)
(0.001899746191653359 0 0)
(0.001653834896039402 0 0)
(0.001413594653709085 0 0)
(0.001181677922652279 0 0)
(0.0009612168185186508 0 0)
(0.0007557310861166502 0 0)
(0.0005689852105037513 0 0)
(0.0004047856870078807 0 0)
(0.0002667029088604262 0 0)
(0.0001576751099857431 0 0)
(7.937603444525937e-05 0 0)
(3.110598332817193e-05 0 0)
(8.137594189754979e-06 0 0)
(1.110835070627957e-06 0 0)
(5.610116848571209e-08 0 0)
(6.995392596931287e-10 0 0)
(1.26697488574628e-12 0 0)
(-1.823919813328466e-13 0 0)
(-1.84816461638424e-13 0 0)
(-1.852553761765048e-13 0 0)
(-1.835456995472116e-13 0 0)
(-1.834620967780597e-13 0 0)
(-1.949198562911149e-13 0 0)
(-1.943262766301264e-13 0 0)
(-1.798797181196568e-13 0 0)
(-1.784417504901498e-13 0 0)
(-1.80774267749646e-13 0 0)
(-1.756201570310812e-13 0 0)
(-1.797710345197616e-13 0 0)
(-2.000238053482046e-13 0 0)
(-1.326817747916939e-13 0 0)
(-2.397100398673834e-13 0 0)
(-1.234060475536537e-13 0 0)
(-1.995723503947502e-13 0 0)
(-1.380365321562515e-13 0 0)
(-1.87863782574226e-13 0 0)
(-1.457530677495021e-13 0 0)
(-1.483614741472147e-13 0 0)
(-1.49669857484516e-13 0 0)
(-1.456903656726338e-13 0 0)
(-1.459328137031748e-13 0 0)
(-1.493396265463522e-13 0 0)
(-1.518602500364443e-13 0 0)
(-1.546275016955822e-13 0 0)
(-1.636566007646073e-13 0 0)
(-1.660727207932722e-13 0 0)
(-1.663486099314877e-13 0 0)
(-1.579757926003678e-13 0 0)
(-1.146611978997559e-13 0 0)
(-1.49573714300005e-13 0 0)
(-8.388283843436771e-14 0 0)
(-1.617838987354979e-13 0 0)
(-1.381034143715743e-13 0 0)
(-1.399970170929933e-13 0 0)
(-1.296219134405304e-13 0 0)
(-1.361554698502172e-13 0 0)
(-1.352525599433013e-13 0 0)
(-1.456527444265143e-13 0 0)
(-1.390063242784795e-13 0 0)
(-1.41840458152927e-13 0 0)
(-1.339776177136346e-13 0 0)
(-1.288653083796456e-13 0 0)
(-1.163039923137113e-13 0 0)
(-9.063794218229372e-14 0 0)
(-7.358715741257206e-14 0 0)
(-6.690311601842391e-14 0 0)
(-5.947919011722473e-14 0 0)
(-4.921277006465574e-14 0 0)
(-4.941759684908947e-14 0 0)
(-3.032272437347346e-14 0 0)
(-2.722524177618269e-14 0 0)
(-1.949616576755556e-14 0 0)
(-1.371503428030087e-14 0 0)
(-1.463884487949774e-14 0 0)
(-1.653662773938445e-14 0 0)
(-1.558773630944634e-14 0 0)
(-8.769930484636812e-15 0 0)
(-2.143156987356836e-14 0 0)
(-2.996741260456213e-14 0 0)
(-2.465445662459504e-14 0 0)
(-1.812508035337651e-14 0 0)
(-1.166258629749266e-14 0 0)
(-2.087561145868143e-14 0 0)
(-1.52867663404939e-14 0 0)
(-5.204272380067809e-15 0 0)
(4.309722750085366e-15 0 0)
(-2.721270136078137e-15 0 0)
(-1.588452614087148e-16 0 0)
(1.463048460227323e-16 0 0)
(1.621893721658925e-15 0 0)
(1.051722836002976e-14 0 0)
(2.133124655056817e-14 0 0)
(2.277757445699584e-14 0 0)
(9.986350775869276e-15 0 0)
(9.17958405350239e-15 0 0)
(6.199145333024575e-15 0 0)
(9.986350775864082e-15 0 0)
(2.359270145628922e-14 0 0)
(3.048156963489566e-14 0 0)
(2.472969911685132e-14 0 0)
(1.898200873725309e-14 0 0)
(1.899454915262753e-14 0 0)
(1.242755163529496e-14 0 0)
(1.427099269522388e-14 0 0)
(9.187944330441184e-15 0 0)
(1.374847538799821e-14 0 0)
(1.064263251377721e-14 0 0)
(1.570060004780356e-14 0 0)
(2.282773611849545e-14 0 0)
(2.93612925281696e-14 0 0)
(2.168237818103386e-14 0 0)
(1.446327906425937e-14 0 0)
(2.08965121509369e-14 0 0)
(3.342856724768559e-14 0 0)
(3.614983738377219e-14 0 0)
(3.782607290538214e-14 0 0)
(5.13237399859017e-14 0 0)
(6.431143017455221e-14 0 0)
(6.818641852501418e-14 0 0)
(7.456530981175257e-14 0 0)
(8.035898171438595e-14 0 0)
(9.217205299638225e-14 0 0)
(9.956253778991049e-14 0 0)
(9.369780353348099e-14 0 0)
(1.034249857249833e-13 0 0)
(1.134531378854418e-13 0 0)
(1.230005741232506e-13 0 0)
(1.279414977804675e-13 0 0)
(1.259057703514744e-13 0 0)
(1.263112437818974e-13 0 0)
(1.264742691817562e-13 0 0)
(1.282591883032612e-13 0 0)
(1.321676177613937e-13 0 0)
(1.489675942236189e-13 0 0)
(1.506229290529502e-13 0 0)
(1.454102963959608e-13 0 0)
(1.410754928151236e-13 0 0)
(1.417443149684023e-13 0 0)
(1.331290496067012e-13 0 0)
(1.506145687760055e-13 0 0)
(1.59154591645471e-13 0 0)
(1.461794418722042e-13 0 0)
(1.469527674869056e-13 0 0)
(1.579005501081023e-13 0 0)
(1.508570168065487e-13 0 0)
(1.461041993799592e-13 0 0)
(1.335554237293971e-13 0 0)
(1.41355562091799e-13 0 0)
(1.478055157323241e-13 0 0)
(1.483029522088153e-13 0 0)
(1.442314973508389e-13 0 0)
(1.420369246604496e-13 0 0)
(1.483949152548695e-13 0 0)
(1.325145692533723e-13 0 0)
(1.31306509239043e-13 0 0)
(1.27368818811709e-13 0 0)
(1.744162771552195e-13 0 0)
(1.316910819771578e-13 0 0)
(1.610481943668858e-13 0 0)
(1.423295343524913e-13 0 0)
(1.399217746007427e-13 0 0)
(1.46150180903008e-13 0 0)
(1.46919326379253e-13 0 0)
(1.38479626832785e-13 0 0)
(1.21817594939647e-13 0 0)
(1.491766011464957e-13 0 0)
(9.317528622622254e-14 0 0)
(1.125335074246873e-13 0 0)
(9.649013602331474e-14 0 0)
(9.568754943941374e-14 0 0)
(1.003024222969088e-13 0 0)
(8.47188661259207e-14 0 0)
(1.112084035335339e-13 0 0)
(7.36707601817347e-14 0 0)
(9.024918930570894e-14 0 0)
(8.125353134434345e-14 0 0)
(8.274166063535871e-14 0 0)
(8.996075975213082e-14 0 0)
(7.540133750332289e-14 0 0)
(7.061925910749584e-14 0 0)
(7.45109680117963e-14 0 0)
(1.082990271668654e-13 0 0)
(6.078757345456055e-14 0 0)
(9.85760251138342e-14 0 0)
(9.400295364090855e-14 0 0)
(9.92072260209819e-14 0 0)
(9.40154940562999e-14 0 0)
(9.060032093620604e-14 0 0)
(9.171223776600853e-14 0 0)
(8.114066760601671e-14 0 0)
(1.195561400339782e-13 0 0)
(5.40450101220088e-14 0 0)
(9.572099054710296e-14 0 0)
(8.914145261440677e-14 0 0)
(8.927103690660356e-14 0 0)
(8.961380826013346e-14 0 0)
(7.147200735291378e-14 0 0)
(9.753935077626817e-14 0 0)
(3.818138467431971e-14 0 0)
(6.791052938678871e-14 0 0)
(6.727514834117878e-14 0 0)
(7.032664941545483e-14 0 0)
(7.584861231832051e-14 0 0)
(7.998694939162046e-14 0 0)
(7.896699560788612e-14 0 0)
(6.399791979019803e-14 0 0)
(8.138729577500295e-14 0 0)
(1.612279403206063e-14 0 0)
(4.106986034870098e-14 0 0)
(3.450286283137095e-14 0 0)
(3.918043776573964e-14 0 0)
(4.089011439502454e-14 0 0)
(5.054205409428368e-14 0 0)
(6.248888980690859e-14 0 0)
(4.06267656721836e-14 0 0)
(1.089302280740079e-13 0 0)
(8.000785008392074e-15 0 0)
(7.541805805713778e-14 0 0)
(4.613618815966517e-14 0 0)
(5.316300090737126e-14 0 0)
(5.385690389138101e-14 0 0)
(6.502623385084344e-14 0 0)
(6.914367023186064e-14 0 0)
(7.011764249255387e-14 0 0)
(7.824383165467408e-14 0 0)
(9.147815001234161e-14 0 0)
(1.011050088808487e-13 0 0)
(1.069028609219273e-13 0 0)
(1.164210361905309e-13 0 0)
(1.149287267610527e-13 0 0)
(9.591327691615028e-14 0 0)
(1.145817752690672e-13 0 0)
(6.031521780881719e-14 0 0)
(1.021876647414432e-13 0 0)
(8.516196080248509e-14 0 0)
(8.794175287697596e-14 0 0)
(9.315438553395078e-14 0 0)
(1.045201820009111e-13 0 0)
(1.178213825739199e-13 0 0)
(1.167345465748769e-13 0 0)
(1.767362539993214e-13 0 0)
(7.038517135386631e-14 0 0)
(1.364480795422585e-13 0 0)
(1.137039461929154e-13 0 0)
(1.094945467658279e-13 0 0)
(1.043028148011128e-13 0 0)
(1.035880111248342e-13 0 0)
(1.008249396041581e-13 0 0)
(1.05724061876788e-13 0 0)
(1.077012673673818e-13 0 0)
(1.170689576515039e-13 0 0)
(1.077556091673478e-13 0 0)
(9.853422372924473e-14 0 0)
(1.139840154695712e-13 0 0)
(1.265035301509451e-13 0 0)
(1.063469025070417e-13 0 0)
(1.241668327529896e-13 0 0)
(6.503459412777417e-14 0 0)
(1.034667871095593e-13 0 0)
(8.915399302976975e-14 0 0)
(8.880286139929837e-14 0 0)
(8.041332351431038e-14 0 0)
(6.526450174294961e-14 0 0)
(8.414200701876206e-14 0 0)
(8.23403673434124e-14 0 0)
(1.545940605879479e-13 0 0)
(5.553731955147142e-14 0 0)
(1.329033221299814e-13 0 0)
(1.294630681791466e-13 0 0)
(1.408414050614862e-13 0 0)
(1.306878487472886e-13 0 0)
(1.189583802344753e-13 0 0)
(1.104935998572428e-13 0 0)
(1.133820755316391e-13 0 0)
(1.133151933163156e-13 0 0)
(1.127048931014673e-13 0 0)
(1.163666943905861e-13 0 0)
(1.079311749825653e-13 0 0)
(1.068067177374034e-13 0 0)
(1.078141311057444e-13 0 0)
(1.237613593225646e-13 0 0)
(1.369747769879582e-13 0 0)
(1.348805276205383e-13 0 0)
(1.360049848657212e-13 0 0)
(1.35419765481631e-13 0 0)
(1.36485700788386e-13 0 0)
(1.3872207486336e-13 0 0)
(1.262443615665612e-13 0 0)
(1.288820289334921e-13 0 0)
(1.256382414901651e-13 0 0)
(1.227790267849526e-13 0 0)
(1.077890502749867e-13 0 0)
(1.185361862501928e-13 0 0)
(7.028902816929433e-14 0 0)
(1.015773645265568e-13 0 0)
(8.628223790915562e-14 0 0)
(9.182510150431358e-14 0 0)
(9.729690274568997e-14 0 0)
(1.051346623542176e-13 0 0)
(1.101591887806081e-13 0 0)
(1.124331841016917e-13 0 0)
(1.747548683702736e-13 0 0)
(6.488410914326125e-14 0 0)
(1.287566247797275e-13 0 0)
(1.056237385538037e-13 0 0)
(1.068192581527709e-13 0 0)
(1.050552397235385e-13 0 0)
(1.154094426837143e-13 0 0)
(1.163875950828534e-13 0 0)
(9.927410823626313e-14 0 0)
(8.965142950623157e-14 0 0)
(9.225147562703894e-14 0 0)
(8.952184521404146e-14 0 0)
(9.358075965665019e-14 0 0)
(9.280743404193373e-14 0 0)
(8.284616409681497e-14 0 0)
(6.114288522348457e-14 0 0)
(9.489750327089729e-14 0 0)
(4.876967538815417e-14 0 0)
(7.221607199842473e-14 0 0)
(6.629699594205696e-14 0 0)
(6.894720372435784e-14 0 0)
(6.058692680858389e-14 0 0)
(5.197584158534011e-14 0 0)
(5.398648818359219e-14 0 0)
(5.208452518545398e-15 0 0)
(4.896196175721521e-14 0 0)
(-5.358937503005922e-14 0 0)
(-2.921916782048475e-15 0 0)
(-1.520316357131383e-14 0 0)
(-2.890147729779962e-14 0 0)
(-5.594279298185413e-14 0 0)
(-7.048967481529543e-14 0 0)
(-6.553203060424306e-14 0 0)
(-7.644219197932227e-14 0 0)
(-8.060142974492073e-14 0 0)
(-9.284087514960959e-14 0 0)
(-1.01744570064905e-13 0 0)
(-9.195468579652887e-14 0 0)
(-9.674512446927135e-14 0 0)
(-1.026809210794803e-13 0 0)
(-1.147907821919536e-13 0 0)
(-8.514942038711039e-14 0 0)
(-1.46355007687442e-13 0 0)
(-1.106858862263184e-13 0 0)
(-1.120987730250906e-13 0 0)
(-1.150959322993823e-13 0 0)
(-1.247980336601494e-13 0 0)
(-1.463968090720223e-13 0 0)
(-1.335805045601466e-13 0 0)
(-1.493814279309581e-13 0 0)
(-9.821235306799995e-14 0 0)
(-1.978626737654929e-13 0 0)
(-1.36473160373013e-13 0 0)
(-1.558815432329695e-13 0 0)
(-1.420536452142918e-13 0 0)
(-1.520608966824894e-13 0 0)
(-1.509698805449447e-13 0 0)
(-1.504055618531441e-13 0 0)
(-1.499708274535255e-13 0 0)
(-1.463717282412886e-13 0 0)
(-1.469820284561444e-13 0 0)
(-1.713898569116959e-13 0 0)
(-1.631800649804522e-13 0 0)
(-1.43700619766684e-13 0 0)
(-1.311685646699493e-13 0 0)
(-1.303116362860796e-13 0 0)
(-9.62769489619843e-14 0 0)
(-1.499123055151e-13 0 0)
(-1.137750085466806e-13 0 0)
(-1.116222372408655e-13 0 0)
(-9.476791897867828e-14 0 0)
(-8.986461656759059e-14 0 0)
(-7.993260759164045e-14 0 0)
(-6.353810455981905e-14 0 0)
(-7.040189190766364e-14 0 0)
(-1.292080797329942e-14 0 0)
(-1.310557009315601e-13 0 0)
(-5.087646517088939e-14 0 0)
(-5.156200787799098e-14 0 0)
(-2.308690470287385e-14 0 0)
(-3.937690427297185e-15 0 0)
(8.477320792612182e-15 0 0)
(1.563371783250318e-14 0 0)
(9.735542468422145e-15 0 0)
(9.553706445495196e-14 0 0)
(9.869306899070941e-15 0 0)
(9.28241545957746e-14 0 0)
(1.014017987113633e-13 0 0)
(1.232179413230289e-13 0 0)
(1.434205504899959e-13 0 0)
(1.674396260689941e-13 0 0)
(2.340208714261618e-13 0 0)
(1.898242675109581e-13 0 0)
(3.122856037731269e-13 0 0)
(2.333018876114078e-13 0 0)
(3.273382823599117e-13 0 0)
(3.512862955851887e-13 0 0)
(3.797112370987892e-13 0 0)
(4.188206125107514e-13 0 0)
(4.249779564592361e-13 0 0)
(5.226385312507816e-13 0 0)
(4.47090888901434e-13 0 0)
(5.459302627379948e-13 0 0)
(5.605941884483685e-13 0 0)
(5.949089450491176e-13 0 0)
(5.974044877085852e-13 0 0)
(6.207923623803271e-13 0 0)
(6.602654098381832e-13 0 0)
(6.922518293177658e-13 0 0)
(7.210320826004094e-13 0 0)
(7.364693339253896e-13 0 0)
(8.202769298675356e-13 0 0)
(7.457826824095517e-13 0 0)
(8.476777374589154e-13 0 0)
(8.63578984152746e-13 0 0)
(9.094894448355102e-13 0 0)
(9.432900444061155e-13 0 0)
(9.861364635994327e-13 0 0)
(1.010009234332422e-12 0 0)
(1.027114360902017e-12 0 0)
(1.13486160979243e-12 0 0)
(1.065496392222361e-12 0 0)
(1.163545719890478e-12 0 0)
(1.180211931922047e-12 0 0)
(1.207483155221112e-12 0 0)
(1.216228004875231e-12 0 0)
(1.237400406164342e-12 0 0)
(1.30764345281066e-12 0 0)
(1.287219296305459e-12 0 0)
(1.356630495398598e-12 0 0)
(1.389707931015839e-12 0 0)
(1.426183819199045e-12 0 0)
(1.462989938321091e-12 0 0)
(1.500272593226867e-12 0 0)
(1.540698712253088e-12 0 0)
(1.558234393083881e-12 0 0)
(1.65109198878732e-12 0 0)
(1.581183353217724e-12 0 0)
(1.686050486710584e-12 0 0)
(1.699105059114677e-12 0 0)
(1.751068360284209e-12 0 0)
(1.779472401105867e-12 0 0)
(1.814384917506077e-12 0 0)
(1.84451535551062e-12 0 0)
(1.863480643693927e-12 0 0)
(1.954444636675921e-12 0 0)
(1.887771428272774e-12 0 0)
(1.983429716742632e-12 0 0)
(2.014797475730913e-12 0 0)
(2.07047273985148e-12 0 0)
(2.105355995282522e-12 0 0)
(2.128748050092792e-12 0 0)
(2.193088741236544e-12 0 0)
(2.181451235769831e-12 0 0)
(2.229138255297447e-12 0 0)
(2.246811880697338e-12 0 0)
(2.286652780338983e-12 0 0)
(2.318334049711846e-12 0 0)
(2.361381115550968e-12 0 0)
(2.406952985018881e-12 0 0)
(2.435390466947852e-12 0 0)
(2.550101826509046e-12 0 0)
(2.494652289865341e-12 0 0)
(2.611934434577723e-12 0 0)
(2.657334918369247e-12 0 0)
(2.715714732071995e-12 0 0)
(2.770570689054913e-12 0 0)
(2.818031981105617e-12 0 0)
(2.883267221879329e-12 0 0)
(2.922338976045389e-12 0 0)
(3.048194584735209e-12 0 0)
(3.008729897554415e-12 0 0)
(3.13786691493326e-12 0 0)
(3.194524511591922e-12 0 0)
(3.256867096552747e-12 0 0)
(3.310276725629197e-12 0 0)
(3.360091435631794e-12 0 0)
(3.461012518420508e-12 0 0)
(3.470200462750928e-12 0 0)
(3.582955517513326e-12 0 0)
(3.648073714410819e-12 0 0)
(3.719804890348045e-12 0 0)
(3.787205442843039e-12 0 0)
(3.849301399635012e-12 0 0)
(3.919899758050049e-12 0 0)
(3.964263567503665e-12 0 0)
(4.103591762443269e-12 0 0)
(4.074079984930817e-12 0 0)
(4.236975800495272e-12 0 0)
(4.283496561393869e-12 0 0)
(4.370021247333573e-12 0 0)
(4.469516902908131e-12 0 0)
(4.546795122579041e-12 0 0)
(4.63836941577594e-12 0 0)
(4.703031977581069e-12 0 0)
(4.855485807277872e-12 0 0)
(4.838042089493702e-12 0 0)
(4.991499152421099e-12 0 0)
(5.075135362686458e-12 0 0)
(5.189328385078483e-12 0 0)
(5.277604549032558e-12 0 0)
(5.368902953091225e-12 0 0)
(5.493303873597995e-12 0 0)
(5.536409461374934e-12 0 0)
(5.652822137289353e-12 0 0)
(5.741349109550153e-12 0 0)
(5.84253772120043e-12 0 0)
(5.937209496993799e-12 0 0)
(6.045654829007382e-12 0 0)
(6.15435514946635e-12 0 0)
(6.225476025188512e-12 0 0)
(6.389922672121421e-12 0 0)
(6.384388168803461e-12 0 0)
(6.561224746125977e-12 0 0)
(6.65508557505933e-12 0 0)
(6.775456842091946e-12 0 0)
(6.884767462766264e-12 0 0)
(6.990232356058679e-12 0 0)
(7.11067050530725e-12 0 0)
(7.215980733476734e-12 0 0)
(7.403518465250618e-12 0 0)
(7.419515855129614e-12 0 0)
(7.60103836766341e-12 0 0)
(7.701156863867861e-12 0 0)
(7.829721202278236e-12 0 0)
(7.965349974683089e-12 0 0)
(8.078255514430782e-12 0 0)
(8.262913130807819e-12 0 0)
(8.274855786381296e-12 0 0)
(8.489827766855665e-12 0 0)
(8.581360258668004e-12 0 0)
(8.782575403476714e-12 0 0)
(8.813316141695245e-12 0 0)
(9.022473549574725e-12 0 0)
(9.154106109613516e-12 0 0)
(9.300912572254628e-12 0 0)
(9.441164577792523e-12 0 0)
(9.587887437664888e-12 0 0)
(9.78870964945903e-12 0 0)
(9.834519786818523e-12 0 0)
(1.00651547460932e-11 0 0)
(1.020835792938431e-11 0 0)
(1.035862554666835e-11 0 0)
(1.052074803661891e-11 0 0)
(1.068342230484599e-11 0 0)
(1.082844802850309e-11 0 0)
(1.097168047276296e-11 0 0)
(1.117853462435193e-11 0 0)
(1.122291515435876e-11 0 0)
(1.145251761943425e-11 0 0)
(1.158591001776509e-11 0 0)
(1.174263594896596e-11 0 0)
(1.189195885495885e-11 0 0)
(1.205304467057082e-11 0 0)
(1.221188157169459e-11 0 0)
(1.234831711082146e-11 0 0)
(1.256320548852594e-11 0 0)
(1.260072641132279e-11 0 0)
(1.281613312619717e-11 0 0)
(1.295592531650573e-11 0 0)
(1.310234302627006e-11 0 0)
(1.324062618659447e-11 0 0)
(1.336116047902809e-11 0 0)
(1.357841899523853e-11 0 0)
(1.360590340559919e-11 0 0)
(1.381103952028046e-11 0 0)
(1.392541646876571e-11 0 0)
(1.408003979032322e-11 0 0)
(1.4213507431145e-11 0 0)
(1.43487558109499e-11 0 0)
(1.449340114200678e-11 0 0)
(1.461678210873103e-11 0 0)
(1.481868279624718e-11 0 0)
(1.484139766862662e-11 0 0)
(1.506539456802987e-11 0 0)
(1.5169170685387e-11 0 0)
(1.531319317581466e-11 0 0)
(1.54528348811383e-11 0 0)
(1.559403577810581e-11 0 0)
(1.572317279548744e-11 0 0)
(1.583399662628252e-11 0 0)
(1.603960927674901e-11 0 0)
(1.605512595070358e-11 0 0)
(1.626718019453424e-11 0 0)
(1.639293129976323e-11 0 0)
(1.652050912549818e-11 0 0)
(1.666223253977246e-11 0 0)
(1.678527073514292e-11 0 0)
(1.699190751953199e-11 0 0)
(1.701531629489565e-11 0 0)
(1.722743742094102e-11 0 0)
(1.736183723263937e-11 0 0)
(1.749390452707738e-11 0 0)
)
;

boundaryField
{
    inlet
    {
        type            calculated;
        value           uniform (-7.692797912042706e-05 0 0);
    }
    outlet
    {
        type            calculated;
        value           uniform (1.754564951396847e-11 0 0);
    }
    frontAndBack
    {
        type            empty;
    }
}


// ************************************************************************* //
