/*--------------------------------*- C++ -*----------------------------------*\
| =========                 |                                                 |
| \\      /  F ield         | OpenFOAM: The Open Source CFD Toolbox           |
|  \\    /   O peration     | Version:  v2012                                 |
|   \\  /    A nd           | Website:  www.openfoam.com                      |
|    \\/     M anipulation  |                                                 |
\*---------------------------------------------------------------------------*/
FoamFile
{
    version     2.0;
    format      ascii;
    class       volScalarField;
    location    "0.013";
    object      p;
}
// * * * * * * * * * * * * * * * * * * * * * * * * * * * * * * * * * * * * * //

dimensions      [1 -1 -2 0 0 0 0];


internalField   nonuniform List<scalar> 
1000
(
101310.9488762813
101313.5961625652
101306.8455342185
101301.5313961661
101295.6823857084
101290.4443370626
101285.9438841586
101282.0952718465
101278.7957250965
101276.5698714157
101275.9146383335
101275.9360768943
101276.3187527313
101277.350227781
101279.3337486832
101282.3375025742
101286.2524805753
101290.9055387694
101296.1497287758
101301.881265776
101308.0156271628
101314.4626344367
101321.1158761779
101327.8533944148
101334.542997423
101341.0504991523
101347.2557537043
101353.0815272708
101358.5197066943
101363.5932878038
101368.1560449021
101371.5576769249
101373.0225882512
101373.188616914
101373.1341661994
101372.8605214431
101372.1201953987
101370.6624051478
101368.2836175055
101364.8903807446
101360.5245911146
101355.3389557116
101349.5355189246
101343.304349618
101336.7937540837
101330.1161984507
101323.3713792121
101316.6640234596
101310.1026024152
101303.7768495097
101297.7284436703
101291.9540009946
101286.5061240759
101281.7550918841
101278.5877974873
101277.5017165396
101277.4254395454
101277.4754766307
101277.7283042004
101278.3705587485
101279.619308933
101281.6695760315
101284.6573608065
101288.6246674838
101293.5075558583
101299.152229172
101305.354622874
101311.9068790575
101318.630931008
101325.389256353
101332.0797023352
101338.6307314061
101345.0051354356
101351.1998320497
101357.2108492922
101362.9151037266
101367.824327
101370.9835477239
101372.0167808485
101372.0900914635
101372.0389357559
101371.8326412644
101371.2897120854
101370.2300255904
101368.4683896788
101365.8530966883
101362.2940144107
101357.7857482088
101352.4136028094
101346.3391535235
101339.7701088196
101332.9233533732
101325.990171526
101319.1117818237
101312.3703019079
101305.794174149
101299.3770828154
101293.1301946134
101287.2262627661
101282.2671487848
101279.2673592092
101278.3944659949
101278.3496405119
101278.3877725126
101278.5934696705
101279.097780799
101280.0750067356
101281.6916485271
101284.0936100961
101287.3808681242
101291.5874952271
101296.66868714
101302.5018467115
101308.9051857593
101315.6693860155
101322.5923287831
101329.5092239939
101336.3145320237
101342.9693317606
101349.4811105688
101355.8371569079
101361.8616403048
101366.974101349
101370.1756619277
101371.1976027046
101371.2724985508
101371.2290304903
101371.0711347579
101370.6474148999
101369.8137092099
101368.4093300439
101366.2858383742
101363.3249480378
101359.4597208276
101354.6906249215
101349.0926523955
101342.8103957429
101336.038801849
101328.9907253295
101321.8586540056
101314.7835007822
101307.8399030919
101301.0504320991
101294.4539710808
101288.2629457576
101283.1563543651
101280.1098683709
101279.1919265025
101279.0935575472
101279.0692024575
101279.1803045995
101279.541957423
101280.3103718612
101281.6433117361
101283.6839792526
101286.54247264
101290.279969579
101294.897051345
101300.3268481768
101306.4365756301
101313.0424761071
101319.9393556901
101326.937226083
101333.891702775
101340.7257339718
101347.4134638069
101353.9156031046
101360.0615695071
101365.2444286304
101368.4506724932
101369.742283706
101369.9508599361
101370.1513367735
101370.2426057945
101370.1773820817
101369.8287813915
101369.0268747121
101367.6013817336
101365.3986883656
101362.3076991522
101358.2701662591
101353.2859674197
101347.4195071821
101340.797004802
101333.5870677314
101325.9724125902
101318.1137107462
101310.1242950395
101302.1023950618
101294.1710486529
101286.5808385427
101280.185243423
101276.1298544925
101273.754852548
101271.8621446196
101270.5284151236
101269.5607898261
101268.893878324
101268.6645995293
101268.9843826814
101269.9021483276
101271.6744981226
101274.4637814677
101278.3307584226
101283.255225302
101289.1634027269
101295.935839762
101303.4160238303
101311.429818071
101319.8252724083
101328.4986396535
101337.3247257201
101346.1360881435
101354.7245663663
101362.2001931038
101367.3798852805
101371.5241849173
101374.8544392426
101377.4141812722
101379.3877977392
101380.8879980163
101381.9834433979
101382.4018565873
101381.9615464894
101380.7442466785
101378.5475784734
101375.1978980322
101370.5775053328
101364.704645176
101357.7256566344
101349.8528517902
101341.3012970589
101332.245792245
101322.8383526463
101313.3056065166
101303.9459178256
101295.154077615
101287.7880499862
101282.5650626405
101278.6318956382
101275.4727631195
101273.1943093597
101271.6074595583
101270.5218418154
101269.9684119376
101270.0250741994
101270.6669600193
101271.9575284854
101274.0377047716
101277.0654641465
101281.1542602275
101286.3247264508
101292.5036012056
101299.5516102975
101307.3013428628
101315.5945518762
101324.3017925332
101333.259988972
101342.1678457358
101350.6920917565
101358.3805757704
101364.3183264772
101368.6998507558
101372.486206867
101375.4580559278
101377.7378020237
101379.4116093447
101380.5486888689
101381.0281937296
101380.7509526294
101379.7725238697
101377.9757022819
101375.1888836958
101371.248627062
101366.0831558681
101359.7289495374
101352.3013526965
101343.9722224065
101334.9487837419
101325.44480014
101315.7321419685
101306.1765185238
101297.1683872264
101289.329751825
101283.4155677406
101279.2160238502
101275.691568015
101273.0493384192
101271.1959457378
101269.9803574641
101269.3879998408
101269.4267187948
101270.0241129614
101271.1947184846
101273.0285666797
101275.654948314
101279.2074648666
101283.7744171095
101289.3690104054
101295.9290926995
101303.338458841
101311.444321546
101320.0756006877
101329.0466967347
101338.0500803229
101346.6742969345
101354.6391122532
101361.2729535266
101365.9525818908
101370.0357308939
101373.3401151524
101375.9263400192
101377.8568219854
101379.1592446951
101379.8016780248
101379.7111990363
101378.9040008585
101377.3606044407
101374.9472549689
101371.5242207081
101366.9717385937
101361.2334372133
101354.3364943446
101346.397224156
101337.6023272299
101328.1696730371
101318.3749212255
101308.6193608645
101299.3311628945
101290.9910895004
101284.368846341
101279.7120090583
101275.9234119955
101272.9475496632
101270.8210835638
101269.4236811748
101268.6789256077
101268.5877003208
101269.1042748643
101270.1634970371
101271.8308827499
101274.1912447216
101277.3646573368
101281.455075565
101286.5199768375
101292.5617735751
101299.5255853211
101307.2978331383
101315.7181411222
101324.5937590687
101333.6347470751
101342.4195251719
101350.6295516113
101357.7954368221
101363.0619141497
101367.3252515912
101370.9420960062
101373.8354590631
101376.0374036075
101377.552597445
101378.4372824853
101378.5718966194
101377.9343434909
101376.6438084084
101374.5505980617
101371.5323381808
101367.4547022817
101362.2366837908
101355.870984633
101348.4159064474
101339.9923925586
101330.7846911658
101321.0510180451
101311.1771724358
101301.6120830906
101292.8016133141
101285.4799436848
101280.1816482893
101276.1626107817
101272.8445987688
101270.4210318813
101268.8019743403
101267.8346226759
101267.5633099734
101267.9754365746
101268.8997097598
101270.4095857525
101272.5624105716
101275.4509513171
101279.1708545063
101283.796405046
101289.3657693022
101295.8680145215
101303.2354596506
101311.3414228741
101320.0079014856
101328.9917694503
101337.9037486334
101346.3145945154
101353.9079129178
101360.0001702957
101364.3986757313
101368.3404007842
101371.5014982732
101373.9576695029
101375.7363268525
101376.8867334161
101377.2842175011
101376.8945593631
101375.852647473
101374.0456737055
101371.3536549674
101367.6609240106
101362.8977417084
101357.0316969905
101350.0642620981
101342.0605835609
101333.1725773321
101323.6235765452
101313.744042897
101303.9811520832
101294.7926382512
101286.8047558802
101280.7208898936
101276.390473005
101272.7400973531
101269.9918062479
101268.096027922
101266.8861440565
101266.4153512907
101266.675466636
101267.4601009166
101268.8100065747
101270.7681893193
101273.4109660518
101276.8255847956
101281.08891765
101286.2496434213
101292.3189918296
101299.2649547782
101307.0004773719
101315.3822933731
101324.212314746
101333.1516957126
101341.7399083969
101349.6888075914
101356.4581685379
101361.2883665771
101365.4482346882
101368.9118861655
101371.6741866617
101373.7605196739
101375.1711781239
101375.8526522472
101375.7579536502
101374.9406140575
101373.3923157972
101371.0129976434
101367.7060509894
101363.3791589003
101357.9628723442
101351.4352828084
101343.848111545
101335.3266656432
101326.0472893004
101316.2741482503
101306.4233762241
101296.9549391209
101288.3916348583
101281.5171230103
101276.6169557427
101272.6987738533
101269.6014063353
101267.4003282718
101265.9509436644
101265.2585340132
101265.3030764611
101265.9306639236
101267.1237691564
101268.906056763
101271.3343629669
101274.4856707646
101278.4329897127
101283.2301489855
101288.904263747
101295.4470343147
101302.8023663005
101310.8589193054
101319.4493452814
101328.3069476004
101337.0186136554
101345.2011667894
101352.47066322
101358.0402061504
101362.347717287
101366.1204996157
101369.1888374891
101371.5630089952
101373.2265347684
101374.2231784686
101374.4343833283
101373.8527453392
101372.6139386428
101370.5702231654
101367.6144525886
101363.6487464973
101358.6181104065
101352.5106868821
101345.3514978022
101337.2137153798
101328.2369968976
101318.6468346292
101308.8026186443
101299.1401646713
101290.1303568898
101282.5285114507
101276.8855122679
101272.7158367416
101269.2201201165
101266.6676489501
101264.9673706275
101264.0229325926
101263.8261270877
101264.3043258779
101265.3241205713
101266.9325092785
101269.1632207511
101272.0797433479
101275.7483538869
101280.2244038358
101285.5437066763
101291.7110136509
101298.6903675729
101306.3965171934
101314.6956289594
101323.3886315919
101332.1191513188
101340.4416022284
101348.0851307194
101354.459681655
101358.9899957533
101363.0543087059
101366.4004286802
101369.0518125682
101371.0215158651
101372.3231368321
101372.8597094466
101372.6014329361
101371.6483190173
101369.915094227
101367.288178119
101363.6836157483
101359.055104302
101353.3721364387
101346.6222504676
101338.8521586197
101330.1927188589
101320.8375185565
101311.0758719333
101301.3172365379
101292.0049053914
101283.7608702771
101277.3380496397
101272.7063581636
101268.881807339
101265.9613901351
101263.970453784
101262.731472339
101262.2811176893
101262.5957784829
101263.4466585798
101264.8787924943
101266.9149724741
101269.6063342471
101273.0184576087
101277.20917799
101282.2131384579
101288.0377572389
101294.6617553039
101302.0249675425
101310.0200205271
101318.4838965654
101327.1330087811
101335.5574465351
101343.4379058499
101350.3452382037
101355.4740775895
101359.6785257303
101363.315670594
101366.2881380575
101368.5835978586
101370.164992892
101371.0265226436
101371.1068380196
101370.4159710089
101368.9966881749
101366.7175850719
101363.4977951371
101359.2609088526
101353.9534854626
101347.5659788358
101340.1512526089
101331.8211757833
101322.7292075118
101313.1092781907
101303.3310867775
101293.8079644713
101285.0581793738
101277.8775239986
101272.5972241416
101268.4823027561
101265.1779050941
101262.8452468607
101261.3209657986
101260.6181957475
101260.7078591598
101261.3823234373
101262.6383241473
101264.4874805975
101266.9683918149
101270.1394426886
101274.0572775242
101278.7607933595
101284.266103991
101290.5624973699
101297.603036142
101305.2952837512
101313.5018389977
101322.0105930765
101330.464224385
101338.4654961924
101345.7351089829
101351.66850426
101355.965868938
101359.896999947
101363.139275245
101365.7073790553
101367.5806863908
101368.7771681997
101369.195051222
101368.8197033674
101367.7515418969
101365.8477122982
101362.9859377337
101359.0927221578
101354.1439052364
101348.1425920371
101341.1121429084
101333.1181140457
101324.2943014554
101314.854183256
101305.1214972812
101295.4812166959
101286.3770169153
101278.5324085526
101272.5319786601
101268.0846870821
101264.4004716734
101261.6767868578
101259.8672376362
101258.9022855592
101258.7359549428
101259.242726467
101260.3159699469
101261.9793522696
101264.2519091144
101267.1848015976
101270.8369685294
101275.2564888749
101280.4669909205
101286.4598865891
101293.1942437659
101300.5943192906
101308.5468548564
101316.8806817682
101325.29199612
101333.3888710324
101340.9042444518
101347.3909397824
101352.128191621
101356.1751360106
101359.6634656574
101362.515900303
101364.7076608676
101366.2061119981
101366.9648235091
101366.9603016598
101366.2079690289
101364.648262116
101362.1538160752
101358.6641676891
101354.139632651
101348.5415013629
101341.8575448663
101334.1542307054
101325.584059984
101316.3399280283
101306.6830334908
101296.9750349118
101287.6149523202
101279.20186015
101272.4718601422
101267.4711233889
101263.4592243873
101260.3531416904
101258.2596117806
101256.9806479201
101256.5210013048
101256.8494326063
101257.7339107024
101259.2142646073
101261.290390082
101263.9960717694
101267.3931874724
101271.5387756091
101276.4615253223
101282.1598949495
101288.606268773
101295.7387103949
101303.450672004
101311.58996672
101319.9171541892
101328.0746645827
101335.7169861403
101342.540680879
101347.9865916156
101352.0185167205
101355.7318912523
101358.8165675455
101361.2616988814
101363.0199042151
101364.1057452866
101364.4400952889
101364.0098589719
101362.8589333917
101360.803330179
101357.7296627335
101353.5808122755
101348.3306180293
101341.9883359724
101334.6180736568
101326.3392229944
101317.3101350492
101307.7641307981
101298.04195835
101288.50485796
101279.6584396442
101272.2708019487
101266.6376509635
101262.3218041987
101258.815191643
101256.3514418035
101254.7609702291
101254.0492240176
101254.1759786709
101254.8825150292
101256.1757987032
101258.0545931975
101260.5433517558
101263.6938183453
101267.5627602122
101272.1915843124
101277.5961672896
101283.7591402434
101290.6244216762
101298.0965990633
101306.0455434163
101314.2736119986
101322.4520039564
101330.2209773983
101337.3289384794
101343.325880984
101347.6696978059
101351.4483194784
101354.7096700629
101357.3674228
101359.3923752203
101360.7619139628
101361.4305977188
101361.3922069678
101360.6324602777
101359.0037172658
101356.3514915254
101352.6182168786
101347.7874474824
101341.8575036266
101334.8507758895
101326.8496691221
101318.0182788801
101308.5962168903
101298.9015529934
101289.2730939448
101280.1201563664
101272.1319440708
101265.8608847226
101261.1088645901
101257.284722192
101254.4246252937
101252.5359461979
101251.5600053583
101251.4203547008
101251.9524553341
101253.0736578771
101254.7788557351
101257.0627971313
101259.9656032113
101263.5541232006
101267.8882670236
101272.993901514
101278.8593749443
101285.4458777709
101292.6821849735
101300.450068122
101308.5722578388
101316.7656221011
101324.6707883064
101331.9804829964
101338.3423885455
101343.3061577755
101347.0087118037
101350.4056565689
101353.213917891
101355.4159690138
101356.9722926314
101357.9043071808
101358.183999488
101357.7752271731
101356.6025650489
101354.4461178318
101351.2075084031
101346.8416869607
101341.3150373027
101334.6336222052
101326.8895106837
101318.2667594763
101308.9946755847
101299.3537777251
101289.6660063236
101280.2866585893
101271.8188553879
101264.9410090113
101259.6550735898
101255.5408701196
101252.2704915112
101250.085139224
101248.7991344696
101248.3718971728
101248.7448423796
101249.6804957908
101251.2063285607
101253.3027236585
101255.9891891192
101259.3224039286
101263.3620204743
101268.1470067738
101273.6910646713
101279.9792574044
101286.9552208921
101294.5139432808
101302.5077673679
101310.7000218555
101318.7348094812
101326.2808924692
101333.0275300731
101338.512336792
101342.5012793166
101345.8704865563
101348.7324288117
101350.9962401774
101352.6642144161
101353.7532878169
101354.2652996692
101354.2159823314
101353.4967112972
101351.8521197909
101349.1255146771
101345.2457843561
101340.1658851813
101333.8854986535
101326.4859191571
101318.1315962554
101309.0349008927
101299.4752544667
101289.794414648
101280.321948885
101271.5442834504
101264.13981916
101258.3436648377
101253.8933761081
101250.3208726039
101247.7633930262
101246.1327959455
101245.4234161464
101245.5963848836
101246.3578375767
101247.7175707036
101249.6520266986
101252.153373821
101255.2527867231
101259.0094804386
101263.4820718937
101268.7010164497
101274.6585380599
101281.3182295539
101288.6143446734
101296.4337458855
101304.5800194334
101312.7259904001
101320.5167560609
101327.6373452183
101333.6287932581
101338.1896711964
101341.591236377
101344.5089697833
101346.7620029634
101348.3842223325
101349.4090234309
101349.9257723699
101350.044371062
101349.6682613113
101348.5328298292
101346.4192419386
101343.1796889138
101338.6948910571
101332.9100897828
101325.8624647755
101317.6943992337
101308.6468770638
101299.0595097775
101289.3203862498
101279.7454094193
101270.7139870651
101262.8405885112
101256.5380742398
101251.6701892575
101247.8993946343
101244.9573051225
101242.9909698142
101241.9663566479
101241.8171549911
101242.3756369204
101243.5485534821
101245.3237588805
101247.6696835353
101250.5955397886
101254.140506353
101258.3486728485
101263.2495186444
101268.8572432056
101275.170575866
101282.1517435095
101289.7074035962
101297.6922566114
101305.8491104329
101313.8195878875
101321.300300144
101327.8667694319
101333.0283250328
101336.8454910735
101339.9299775989
101342.2763133246
101343.8822481361
101344.8042965542
101345.1545408594
101345.1785013653
101344.8799779815
101344.0662915293
101342.5520463378
101340.1107023306
101336.4943889114
101331.4877491602
101324.9799684097
101317.045383961
101307.9834180714
101298.270682554
101288.4310749835
101278.8408700018
101269.8086649361
101261.7770821404
101255.082727667
101249.7643114098
101245.7033555509
101242.3996831048
101240.1042446177
101238.7546261909
101238.2923886584
101238.6392217107
101239.5531931357
101241.1021818501
101243.2833051656
101246.084165375
101249.4907247871
101253.5026264016
101258.1369560954
101263.4164346486
101269.3667720382
101275.9603172277
101283.3053396748
101290.676917337
101301.3839752106
)
;

boundaryField
{
    inlet
    {
        type            uniformFixedValue;
        uniformValue    sine;
        uniformValueCoeffs
        {
            frequency       constant 3000;
            scale           constant 50;
            level           constant 101325;
        }
        value           uniform 101323.6440830864;
    }
    outlet
    {
        type            waveTransmissive;
        gamma           1.4;
        fieldInf        101325;
        lInf            2.25;
        value           uniform 101303.317408105;
    }
    frontAndBack
    {
        type            empty;
    }
}


// ************************************************************************* //
