/*--------------------------------*- C++ -*----------------------------------*\
| =========                 |                                                 |
| \\      /  F ield         | OpenFOAM: The Open Source CFD Toolbox           |
|  \\    /   O peration     | Version:  v2012                                 |
|   \\  /    A nd           | Website:  www.openfoam.com                      |
|    \\/     M anipulation  |                                                 |
\*---------------------------------------------------------------------------*/
FoamFile
{
    version     2.0;
    format      ascii;
    class       volScalarField;
    location    "0.013";
    object      pMean;
}
// * * * * * * * * * * * * * * * * * * * * * * * * * * * * * * * * * * * * * //

dimensions      [1 -1 -2 0 0 0 0];


internalField   nonuniform List<scalar> 
1000
(
101325.0394648606
101325.0028870233
101325.0139121227
101325.0243649942
101325.0386548142
101325.055932937
101325.0744518992
101325.0973930489
101325.1217179689
101325.1483175701
101325.1756466775
101325.2028248558
101325.2299550301
101325.2566303065
101325.2825891148
101325.3071895362
101325.3299424339
101325.3503704025
101325.3680588608
101325.3827837736
101325.3942040836
101325.4021968332
101325.4065322684
101325.407201849
101325.4041178635
101325.3973962214
101325.3871157735
101325.3735134098
101325.3567505332
101325.3370736101
101325.314654627
101325.2899274539
101325.2637104569
101325.2370564683
101325.2103807535
101325.1838060408
101325.1574775705
101325.1317356847
101325.1069942191
101325.0838105546
101325.0627111973
101325.0442173488
101325.0287189687
101325.0165307336
101325.0078419436
101325.0028020783
101325.001464559
101325.003862946
101325.0099344295
101325.0195932256
101325.0326816471
101325.0490687459
101325.0685869615
101325.0910170577
101325.1157728022
101325.1418207408
101325.1681624226
101325.1945061479
101325.2207569497
101325.2467949296
101325.2723214283
101325.296991915
101325.3203006935
101325.3417524704
101325.360784054
101325.3769614137
101325.389872799
101325.3992949694
101325.4050313784
101325.4070638637
101325.4053505796
101325.3999868778
101325.3910131295
101325.3785747638
101325.3627207695
101325.3436160552
101325.3214573494
101325.2969439145
101325.2711491153
101325.245099038
101325.2190281565
101325.1930416588
101325.1672339281
101325.1418568749
101325.1172090597
101325.093744882
101325.0719250317
101325.0523012551
101325.035352933
101325.0215458774
101325.0111963527
101325.0045543453
101325.0017053037
101325.0026942063
101325.0074435277
101325.015903227
101325.0279510852
101325.0435392705
101325.0625200949
101325.0846226456
101325.1090662566
101325.1346781865
101325.1605073996
101325.1863476929
101325.2120966267
101325.2376979858
101325.2628771223
101325.287406581
101325.3108297338
101325.3327584136
101325.3526272221
101325.3700032795
101325.3843634896
101325.3954021465
101325.4027798145
101325.4064178662
101325.4061902013
101325.4021997931
101325.3944407753
101325.3830671976
101325.3680825461
101325.3496712053
101325.3280416482
101325.303989757
101325.2786410554
101325.2530459851
101325.2274143008
101325.2018632945
101325.176438534
101325.1513666319
101325.126868117
101325.1033368387
101325.081150792
101325.0608317708
101325.0428284456
101325.0276640884
101325.0157184696
101325.0073641549
101325.0027784047
101325.0021323504
101325.0053939294
101325.0125779338
101325.0235842672
101325.0383534893
101325.0567148183
101325.0783836004
101325.1024191005
101325.1276691554
101325.1530964111
101325.1785363496
101325.2038489464
101325.2290260182
101325.2538320241
101325.278100544
101325.301457283
101325.3236061415
101325.3440065378
101325.3622872375
101325.3779456156
101325.3905615322
101325.399721562
101325.4052267122
101325.4068244042
101325.4044622272
101325.3980700075
101325.3878034863
101325.3736574144
101325.3557366864
101325.3343888246
101325.3105001899
101325.2852338425
101325.2595507685
101325.2339911865
101325.2085481113
101325.1833913015
101325.1587425315
101325.1347765562
101325.1117265045
101325.0900783954
101325.0701680403
101325.052364193
101325.0371839027
101325.024866493
101325.0159670234
101325.0105664569
101325.0089336201
101325.0109697796
101325.0167541891
101325.0261671041
101325.039251936
101325.0554997965
101325.0746880078
101325.0955903339
101325.1169413783
101325.1380089492
101325.1586581375
101325.1785070468
101325.1976112462
101325.2156690547
101325.2328802258
101325.2486506014
101325.2630838429
101325.2758121185
101325.2865133608
101325.2947902651
101325.3002701342
101325.3028327056
101325.302220394
101325.2983350607
101325.291026423
101325.2805076128
101325.2664618707
101325.2497998722
101325.2301929134
101325.20822085
101325.1850703558
101325.1618678335
101325.1391070965
101325.1171265017
101325.0963389847
101325.0768358761
101325.0587545255
101325.0420464453
101325.0270331405
101325.0135471446
101325.0019107713
101324.9921068076
101324.9845828043
101324.9793495072
101324.9769956653
101324.977551695
101324.9812067886
101324.9880483471
101324.9978474518
101325.0117128468
101325.0280795733
101325.0473518579
101325.068890731
101325.0917322818
101325.1148217432
101325.1377238201
101325.1599793359
101325.1813196076
101325.2015324946
101325.2204586156
101325.2383849867
101325.2546150099
101325.2690188873
101325.2820038714
101325.293028358
101325.3018296783
101325.3080210073
101325.3113625827
101325.3116295703
101325.3085435852
101325.3021584201
101325.2920564546
101325.2789976505
101325.2626479893
101325.2433489261
101325.2215243362
101325.1981966041
101325.1744857336
101325.1511899758
101325.1283454635
101325.1066537848
101325.086156107
101325.0671085169
101325.0497512743
101325.0339916213
101325.0196237111
101325.0073247161
101324.9967206609
101324.9881749695
101324.9817422638
101324.9778124443
101324.9766470621
101324.9784512431
101324.9834329243
101324.9915067867
101325.0034090882
101325.0188029628
101325.0365459367
101325.0568172333
101325.0786596099
101325.1010445811
101325.1234453393
101325.1453434372
101325.1664885702
101325.1866154874
101325.2053462367
101325.2232486564
101325.2393731406
101325.25345266
101325.2661860594
101325.2771108826
101325.2859596365
101325.2924936951
101325.2962672078
101325.2972156293
101325.2949289633
101325.2893112745
101325.2801174416
101325.2673500484
101325.2524699324
101325.2334388925
101325.2119889234
101325.1885645632
101325.1644346574
101325.1405410456
101325.1170623568
101325.094501876
101325.0731241337
101325.0531317685
101325.0349152921
101325.0183654703
101325.0032808062
101324.9899835685
101324.9786252187
101324.969159171
101324.9617478654
101324.9564804619
101324.9538211812
101324.9539727664
101324.9569913259
101324.9634566147
101324.9724755381
101324.9875857517
101325.0033077626
101325.0222847356
101325.0429387658
101325.0645904756
101325.0862926791
101325.1078225483
101325.128600012
101325.1484748254
101325.1671385476
101325.1845848848
101325.2008319993
101325.2149049375
101325.2270184417
101325.2378193928
101325.246533359
101325.253170753
101325.257130528
101325.2584704655
101325.256799952
101325.2517279766
101325.2435727269
101325.2305385097
101325.2177376604
101325.1988784762
101325.1779090662
101325.1545071219
101325.1299345947
101325.1053714481
101325.0812347722
101325.0577650524
101325.0354122922
101325.0144763503
101324.9950091745
101324.9777587141
101324.9619044651
101324.9473631135
101324.9351830539
101324.9247894608
101324.9163924896
101324.9100582275
101324.9059882604
101324.9045928697
101324.9057914614
101324.9104947629
101324.9168580457
101324.9308627286
101324.9449430943
101324.9622853805
101324.9816290252
101325.0023024195
101325.0232073562
101325.0441942837
101325.0644849563
101325.0839822565
101325.1024470013
101325.1193139968
101325.1357386855
101325.1497561909
101325.1612442536
101325.1717828246
101325.1802617939
101325.1867608286
101325.1908554113
101325.1922808077
101325.1909273247
101325.1863454412
101325.1787070674
101325.1664334443
101325.1537208622
101325.136435071
101325.1156313868
101325.0924896842
101325.0675641247
101325.0423273967
101325.0173881729
101324.9930805045
101324.9696655387
101324.9477445556
101324.9269240228
101324.9089748798
101324.8921634434
101324.8764131364
101324.863218208
101324.8518696578
101324.8424684884
101324.8351508568
101324.829778687
101324.8269452415
101324.8265951159
101324.8292680498
101324.8343182404
101324.8443986108
101324.8586139415
101324.8736821968
101324.8916683113
101324.9110842024
101324.9311287665
101324.9512517397
101324.9710555451
101324.9900424679
101325.0081082001
101325.0245987791
101325.0405802206
101325.0546634468
101325.0658458294
101325.0758191262
101325.0840257696
101325.0902451457
101325.0942665268
101325.0956701611
101325.0943831164
101325.0901378055
101325.0826553312
101325.0716474979
101325.0571299969
101325.0428614403
101325.021932425
101324.9992069766
101324.97413213
101324.9482350756
101324.9224290718
101324.8973046327
101324.8728345231
101324.8497249622
101324.8279726021
101324.8083169287
101324.7908139755
101324.774351228
101324.7596302141
101324.7473090011
101324.736848038
101324.7284964024
101324.7221083413
101324.7178815235
101324.716140999
101324.7168366947
101324.7208128725
101324.7261525481
101324.7412726173
101324.7538146793
101324.7702827266
101324.7882844547
101324.8073225717
101324.826496447
101324.8456376437
101324.8640586727
101324.8815778123
101324.8979400514
101324.9128498187
101324.9272757784
101324.9386458565
101324.947580813
101324.9554904665
101324.9613505609
101324.9651098043
101324.9665373678
101324.9651245863
101324.9610498406
101324.9535930845
101324.9434951401
101324.9274728063
101324.9156507697
101324.8950775709
101324.8726282037
101324.8476403132
101324.8212153085
101324.7946297148
101324.7685024032
101324.7430942651
101324.7187322159
101324.6959138546
101324.6745613968
101324.6562972106
101324.639135925
101324.6226859883
101324.6093277211
101324.5977815046
101324.5883328262
101324.5809472715
101324.5754443341
101324.5722901964
101324.5713194302
101324.573589315
101324.5764465206
101324.5891294211
101324.6011479817
101324.6153093893
101324.6318767148
101324.6496257772
101324.6677994146
101324.6858999985
101324.7037861273
101324.7205778678
101324.7365930358
101324.7507271763
101324.7649918429
101324.7766027736
101324.7846360364
101324.792180089
101324.7975957706
101324.8010155202
101324.8022393858
101324.8007776245
101324.7965813313
101324.7892260628
101324.7791438512
101324.764267463
101324.7499216736
101324.7327377611
101324.7098756802
101324.6852108119
101324.658444271
101324.6310419161
101324.6038669043
101324.5774932786
101324.5518303338
101324.527774005
101324.5049898926
101324.4851988904
101324.4672398027
101324.4495272861
101324.4348231906
101324.4220798081
101324.4114890873
101324.4029387877
101324.3964396736
101324.391854271
101324.3894894886
101324.3896537344
101324.3920037918
101324.3983062139
101324.4123425919
101324.4237334434
101324.4387354254
101324.4550394934
101324.4720566595
101324.4890784131
101324.5060460011
101324.5222159237
101324.5375427823
101324.5514721967
101324.5643903769
101324.5764186306
101324.5845845127
101324.5909759339
101324.5960351201
101324.5989934167
101324.5998407752
101324.5983232401
101324.5939148632
101324.5866136796
101324.5761182029
101324.5628059827
101324.5443289894
101324.5316253642
101324.50821359
101324.4838994489
101324.4570315061
101324.4289578368
101324.4008221355
101324.3731859186
101324.3464082156
101324.3208701191
101324.2969836395
101324.2748616318
101324.2561931991
101324.2379827958
101324.2208546357
101324.2070585729
101324.1950786787
101324.1853253901
101324.1777052534
101324.1718549325
101324.1680991444
101324.1661835081
101324.1676639428
101324.1682207192
101324.1835890405
101324.192557379
101324.205631443
101324.2202327668
101324.2359238493
101324.2517287903
101324.2674553853
101324.2828315415
101324.2972225283
101324.3107589653
101324.3223777737
101324.3345479372
101324.3432043783
101324.3478720545
101324.3526347132
101324.3549029127
101324.355261349
101324.353371529
101324.3488256324
101324.3413453708
101324.3304332727
101324.3173767685
101324.2979642881
101324.2850123451
101324.2636267102
101324.2388641142
101324.2119719262
101324.1834077721
101324.1542666323
101324.1253736956
101324.0972672261
101324.0701362701
101324.0447863404
101324.0207366726
101324.0004849872
101323.9815906792
101323.9622929698
101323.9471700096
101323.9337355914
101323.9225972482
101323.9135814192
101323.9066230369
101323.9013762689
101323.8977489039
101323.8970601349
101323.8969250503
101323.9052201191
101323.9168219797
101323.9266277862
101323.9395812282
101323.9536911735
101323.9681792986
101323.9825840588
101323.9967287372
101324.0101968668
101324.0228966072
101324.033978228
101324.0446886383
101324.0538063031
101324.0580693785
101324.0618105237
101324.0636269908
101324.063315311
101324.0608727896
101324.0561291549
101324.0483710629
101324.037294934
101324.0234699215
101324.0060037344
101323.9867502672
101323.9712600106
101323.9452533324
101323.9186527789
101323.8896590221
101323.8597158576
101323.829634
101323.8000110079
101323.7713874901
101323.7442355138
101323.7189768974
101323.6957776124
101323.6760808268
101323.6561007038
101323.6381836103
101323.6235304158
101323.6107136832
101323.6002451933
101323.5919394556
101323.5854801792
101323.5804325081
101323.5770864922
101323.5770312628
101323.5759524117
101323.5923858358
101323.598088809
101323.6093954826
101323.6214883052
101323.634595854
101323.6475284011
101323.6602084684
101323.6723974374
101323.6839128908
101323.6946119184
101323.7033395631
101323.7127959615
101323.7177402256
101323.7189709686
101323.7204228034
101323.7192482534
101323.7160566949
101323.7106463789
101323.7026906137
101323.6913819546
101323.6763917854
101323.6599647636
101323.635475097
101323.6248120735
101323.5979134555
101323.5711543377
101323.5417344899
101323.5111250037
101323.4798595531
101323.4487623663
101323.4182062781
101323.3891424241
101323.3620733788
101323.3362572515
101323.315208548
101323.2946339554
101323.2731103023
101323.25697008
101323.2423680206
101323.2301133985
101323.2200591434
101323.2122042389
101323.2056396806
101323.1999754463
101323.1978019348
101323.194029253
101323.2054050809
101323.2125842571
101323.2202429846
101323.2303619944
101323.241588955
101323.2529636774
101323.2640560564
101323.2744689461
101323.2845529534
101323.2940971615
101323.3016727787
101323.3098684166
101323.3153163718
101323.3149055859
101323.3155019305
101323.3135206765
101323.3093680489
101323.303025134
101323.2944446448
101323.2828839634
101323.2671457801
101323.2494804744
101323.2270776498
101323.2076917745
101323.1883578184
101323.1591800586
101323.1297255595
101323.0983452911
101323.0660865829
101323.0336069534
101323.0011037981
101322.9699046683
101322.9404750443
101322.9131161168
101322.8884518257
101322.8667076036
101322.8439186226
101322.8247587698
101322.808476118
101322.7942606779
101322.7822629813
101322.7725648623
101322.7647943605
101322.7573953645
101322.7518955166
101322.7490348178
101322.747079864
101322.7625677139
101322.7645786766
101322.7729388516
101322.781820859
101322.7916433756
101322.8011712043
101322.8098574327
101322.8180587699
101322.8260242822
101322.8333658653
101322.8387936463
101322.84458029
101322.84506508
101322.8425303142
101322.8400995476
101322.8349438723
101322.8275909915
101322.8179701405
101322.8061108927
101322.7900935011
101322.7703521324
101322.7501481449
101322.7199951624
101322.7118556122
101322.6783389879
101322.6490760414
101322.6167161013
101322.58371215
101322.5501169618
101322.5160544384
101322.4823498534
101322.4504857463
101322.4211792058
101322.3928262271
101322.3700928085
101322.3468097578
101322.322543295
101322.3046647832
101322.2882506192
101322.2742435426
101322.2623262267
101322.2528883251
101322.2441765894
101322.2355926536
101322.2313222303
101322.2226166834
101322.2381220369
101322.2387163005
101322.2436140969
101322.2499533803
101322.2576789971
101322.2655939807
101322.2727070848
101322.2786840624
101322.2845214151
101322.2905908109
101322.2938501303
101322.2996765871
101322.3009219722
101322.2946448209
101322.2918378808
101322.2855401449
101322.277250693
101322.2663613472
101322.2535237858
101322.23725609
101322.2164271027
101322.1944039414
101322.1666587533
101322.1474188258
101322.1234649513
101322.0905644189
101322.0578265452
101322.0237474088
101321.9891142926
101321.9539958942
101321.9180986137
101321.8834174666
101321.8512160886
101321.8208310999
101321.7942556571
101321.7695129488
101321.742693426
101321.7215071921
101321.7028554929
101321.6865818939
101321.6723224177
101321.6604984247
101321.650235489
101321.6396859081
101321.6313335676
101321.6248064635
101321.6215430715
101321.6356266013
101321.6327947146
101321.6371798891
101321.6422155808
101321.6483125912
101321.654266316
101321.6584948006
101321.6620609526
101321.6658457827
101321.6692458087
101321.6710517952
101321.6727015206
101321.6681553889
101321.6614512958
101321.6547637181
101321.6454180858
101321.6336305441
101321.6195495053
101321.6027673385
101321.5814458152
101321.5568106592
101321.5325350597
101321.4954071445
101321.4920073573
101321.4498863322
101321.4177583964
101321.3820329764
101321.3464568054
101321.3106373462
101321.2736083309
101321.2364357669
101321.2009020825
101321.1686565252
101321.1368938677
101321.1114394313
101321.0845732427
101321.0564139097
101321.0359278592
101321.0168895516
101321.0004795113
101320.9860951812
101320.974049755
101320.9611624098
101320.9497407998
101320.9423509154
101320.9282534967
101320.9471152981
101320.9398679288
101320.9408744294
101320.9425384283
101320.946002788
101320.9500670734
101320.9530136551
101320.9544073947
101320.9551424343
101320.956900639
101320.9548605217
101320.9584203686
101320.9551312064
101320.9416912082
101320.935150535
101320.9241543407
101320.9113460848
101320.8958561778
101320.8785558674
101320.855195395
101320.8298685857
101320.8029323889
101320.7698688409
101320.7496085889
101320.7216700436
101320.6834898143
101320.6469994749
101320.609653137
101320.5724276366
101320.5345978774
101320.4958512402
101320.4575325253
101320.4216980121
101320.3868435768
101320.3577336468
101320.3293843649
101320.2969443826
101320.2725929369
101320.250522799
101320.2312701375
101320.2141912858
101320.2006310946
101320.1851045841
101320.1709575349
101320.1590632183
101320.1489289892
101320.1401927791
101320.1582860374
101320.1448262984
101320.1451673801
101320.1454516584
101320.1474229068
101320.1487064696
101320.148609001
101320.1479453129
101320.1465654606
101320.1439835361
101320.1408677031
101320.1391213252
101320.1289799987
101320.1165183431
101320.1058082983
101320.0915013958
101320.0742040047
101320.0558100298
101320.0341503635
101320.0040426163
101319.9666864701
101319.9219017644
101319.8939560348
)
;

boundaryField
{
    inlet
    {
        type            calculated;
        value           uniform 101324.9999999995;
    }
    outlet
    {
        type            calculated;
        value           uniform 101319.902800137;
    }
    frontAndBack
    {
        type            empty;
    }
}


// ************************************************************************* //
