/*--------------------------------*- C++ -*----------------------------------*\
| =========                 |                                                 |
| \\      /  F ield         | OpenFOAM: The Open Source CFD Toolbox           |
|  \\    /   O peration     | Version:  v2012                                 |
|   \\  /    A nd           | Website:  www.openfoam.com                      |
|    \\/     M anipulation  |                                                 |
\*---------------------------------------------------------------------------*/
FoamFile
{
    version     2.0;
    format      ascii;
    class       volScalarField;
    location    "0.013";
    object      rho;
}
// * * * * * * * * * * * * * * * * * * * * * * * * * * * * * * * * * * * * * //

dimensions      [1 -3 0 0 0 0 0];


internalField   nonuniform List<scalar> 
1000
(
1.17630111109476
1.17632501756576
1.17627150221392
1.176227940084545
1.17617712827369
1.176130953080139
1.176091924306428
1.17605906193416
1.176030936652976
1.176011624825661
1.176005438981367
1.17600477095016
1.176007079334126
1.176015218475818
1.176031515607937
1.176056379971089
1.176088895519219
1.176127627735168
1.176171344316561
1.176219159149215
1.176270338782349
1.176324102905272
1.176379542539335
1.176435628132218
1.176491253369502
1.176545302177587
1.176596780435453
1.176645054712014
1.176690068829958
1.17673202728408
1.176769733583378
1.176797814716358
1.17680984995258
1.176811149009875
1.176810630727412
1.176808318496725
1.17680219217676
1.176790135698312
1.176770451696475
1.176742365002348
1.176706216708068
1.176663265875087
1.176615182834908
1.176563540801506
1.176509568665439
1.176454199842124
1.1763982631464
1.176342629904422
1.176288202806595
1.176235729033481
1.176185556788367
1.176137659858717
1.176092475461043
1.176053074518846
1.176026811209843
1.176017809792702
1.176017183132376
1.176017606079544
1.176019710719384
1.17602504090905
1.176035398678153
1.176052401865796
1.17607717819356
1.176110076158256
1.176150565803978
1.176197371970512
1.176248802580774
1.176303134050591
1.176358889787503
1.176414929358017
1.17647040558594
1.176524725141647
1.17657757935696
1.176628942561699
1.176678781777343
1.176726076535684
1.176766778768482
1.176792971318807
1.176801537422733
1.176802144934006
1.176801720408688
1.176800009676603
1.176795508178893
1.176786722446024
1.176772116994367
1.176750433932296
1.176720925794951
1.176683547590755
1.176639006278061
1.176588641199351
1.176534174271595
1.17647740360998
1.176419915190478
1.176362879967646
1.176306978911897
1.176252447949855
1.176199234791191
1.176147432114253
1.176098472601686
1.176057347571182
1.176032470605111
1.176025231751281
1.176024860016592
1.176025176242491
1.176026882075182
1.176031064295509
1.176039168361078
1.176052575016961
1.176072494149504
1.176099754710059
1.176134639047521
1.176176775348951
1.176225146676424
1.176278245287093
1.176334335236374
1.176391740397016
1.176449094289364
1.176505521822206
1.176560700336358
1.176614691983493
1.176667391438458
1.176717340962862
1.176759728178773
1.176786271898269
1.176794744623162
1.176795365561685
1.17679500516535
1.176793696071451
1.176790183082408
1.176783270967479
1.176771627463488
1.176754021819984
1.176729473221623
1.176697426504893
1.176657885306196
1.176611471105947
1.176559382461799
1.176503235497805
1.176444794926199
1.176385656709721
1.176326989272427
1.176269411557394
1.176213110800444
1.17615840952157
1.17610706940803
1.176064721489067
1.176039457325142
1.176031844886047
1.176031029105951
1.176030827120661
1.176031748472989
1.17603474762903
1.176041120029302
1.176052173969516
1.176069096951444
1.176092801894617
1.176123795963036
1.176162083746828
1.176207110446571
1.176257774661843
1.17631255235257
1.176369741819583
1.176427767569827
1.176485432365744
1.176542097354458
1.176597548215801
1.176651459265177
1.176702416282948
1.176745387381866
1.176771970057474
1.176782678609179
1.176784407866692
1.176786069970974
1.176786826653861
1.176786285883088
1.176783395680651
1.176776747186438
1.176764928599127
1.176746666252825
1.176721038935971
1.176687563518417
1.176646238718338
1.176597598204688
1.176542688161395
1.176482906275554
1.176419767310399
1.176354603342779
1.176288354019048
1.176221833827827
1.176156063056427
1.176093119789352
1.176040082073759
1.176006450854531
1.175986754833363
1.175971058397998
1.17595999757693
1.175951972884842
1.175946442048736
1.175944540580913
1.175947192584742
1.175954803756299
1.175969502099412
1.17599263387867
1.176024702775046
1.176065540950193
1.176114536206789
1.176170697582479
1.176232726803757
1.176299179521047
1.176368795460861
1.17644071414453
1.176513897346544
1.176586956644032
1.176658166155631
1.176720147323207
1.1767630919089
1.176797451627644
1.176825061927314
1.176846283924069
1.176862646436367
1.176875083969138
1.176884165807832
1.176887634666735
1.176883984231609
1.176873892096706
1.176855680369933
1.176827909270446
1.176789602694537
1.176740911496565
1.176683048474178
1.176617773427719
1.176546869084404
1.176471784421204
1.176393779613693
1.176314733666731
1.176237120644429
1.176164214509691
1.1761031305215
1.176059817275062
1.176027199825779
1.176001001116828
1.175982105734525
1.175968945797553
1.175959942599895
1.175955352908536
1.175955822799716
1.175961146028978
1.175971848861607
1.175989099943028
1.176014209247405
1.176048117436988
1.176090995318065
1.176142234964354
1.176200681006711
1.176264944790316
1.176333713728197
1.17640591415636
1.17648019364859
1.176554053867282
1.176624731599553
1.176688478262595
1.176737708341074
1.176774035154422
1.176805427112879
1.1768300659106
1.17684896652891
1.176862843428825
1.176872270479187
1.176876245840819
1.176873947330182
1.176865835542962
1.176850938745936
1.176827834121563
1.176795166419414
1.176752340228599
1.176699657558762
1.176638074227724
1.176569014613278
1.176494196417815
1.176415391691345
1.17633485448698
1.176255617244389
1.176180917958528
1.176115915101461
1.176066870050922
1.176032043629402
1.176002815325661
1.175980903129307
1.175965532712705
1.175955451639984
1.175950539108742
1.175950860195946
1.175955814460262
1.175965522444363
1.175980730741186
1.176002511478955
1.176031972466487
1.176069845741758
1.176116240488676
1.176170640900836
1.176232082909491
1.176299299123166
1.176370870542322
1.176445257893374
1.176519911064547
1.17659141851442
1.176657457002087
1.176712458900624
1.17675125758737
1.176785110449162
1.176812506384752
1.176833948038985
1.176849953011671
1.176860750905345
1.176866077062957
1.176865326919259
1.176858634718142
1.176845838946157
1.176825830606808
1.176797451067944
1.176759707146543
1.176712131106411
1.176654947805043
1.176589121081957
1.176516198391421
1.17643798572468
1.176356768432461
1.176275873862627
1.176198852647013
1.176129691916588
1.176074775283274
1.176036156652484
1.17600473785698
1.175980058826126
1.175962423770018
1.175950834876363
1.175944658471831
1.175943901910961
1.175948185943943
1.175956970235305
1.175970798083154
1.17599037277476
1.176016689977324
1.176050611604017
1.176092614041957
1.176142716948225
1.176200464807675
1.176264915330651
1.176334738213364
1.176408334801565
1.176483300724684
1.176556140364562
1.176624212759459
1.176683626505944
1.176727291139299
1.17676263820085
1.176792624892407
1.176816613094187
1.176834868776071
1.176847430743589
1.176854765343177
1.176855881366583
1.176850595621742
1.176839896206111
1.176822542010736
1.176797518341296
1.176763711319596
1.176720449019958
1.176667670515734
1.176605858688347
1.176536015764057
1.17645966889597
1.176378958684091
1.176297083893649
1.176217767140678
1.176144706029779
1.176083989472086
1.176040051404146
1.176006721601527
1.175979205104896
1.175959106140936
1.175945679006424
1.175937656554475
1.175935406491095
1.175938824332125
1.175946489497189
1.175959011143713
1.175976864787708
1.176000819659151
1.176031668808359
1.176070028055553
1.176116213608744
1.176170134433034
1.176231228855674
1.176298445946929
1.17637030927839
1.176444802556992
1.176518697858941
1.176588436200116
1.176651394599453
1.176701906307695
1.176738374347766
1.176771054828526
1.176797262935353
1.176817626464408
1.176832372800743
1.176841910447939
1.176845205848613
1.176841975306837
1.176833337122459
1.176818356000464
1.176796037095099
1.176765421260159
1.176725930034172
1.176677294336473
1.176619525916584
1.17655316438897
1.176479468798028
1.17640029043595
1.17631836908919
1.176237412678002
1.176161217094311
1.176094976125062
1.176044523558682
1.176008611533403
1.175978338726374
1.175955546762205
1.175939824705567
1.175929790859468
1.175925886455487
1.175928043644962
1.175934550784666
1.175945745820215
1.175961985351815
1.175983902203428
1.176012219804633
1.176047575469866
1.176090372629477
1.176140704078109
1.176198303992642
1.176262450047971
1.176331953824614
1.176405172409503
1.17647929592477
1.176550505844965
1.176616413284747
1.176672539553099
1.176712587140946
1.176747076517443
1.176775793265991
1.17679869499409
1.176815992283224
1.176827687658688
1.176833337555641
1.176832552426109
1.176825776081295
1.1768129395361
1.176793213129371
1.176765795756938
1.176729921810697
1.176685015174331
1.176630893783385
1.176567985966233
1.176497330147557
1.176420387972508
1.176339349420497
1.176257664863909
1.176179148539479
1.176108136151354
1.176051127072798
1.176010490187656
1.175977996452021
1.175952309530067
1.175934055532977
1.175922035424369
1.175916293082698
1.175916662476465
1.175921867212696
1.175931761916373
1.175946542794569
1.17596668112767
1.175992815238402
1.176025550440397
1.176065332914458
1.176112387231467
1.176166644208917
1.176227638278083
1.176294445746679
1.176365678555258
1.176439124985528
1.17651135951467
1.176579205159717
1.1766394788745
1.176685656907719
1.176721370708608
1.176752650684034
1.176778089897474
1.176797773715482
1.176811565625171
1.176819828535438
1.176821579569213
1.176816757346869
1.176806486685207
1.176789542655084
1.176765036808067
1.176732157435544
1.176690448296878
1.176639810704645
1.176580451659185
1.176512977334846
1.176438545165976
1.176359024396427
1.176277394764315
1.176197270093996
1.176122555427003
1.176059514946401
1.176012717875535
1.175978138498439
1.175949147990782
1.175927979781293
1.175913878913745
1.175906046402793
1.175904414224451
1.175908380059188
1.175916837495513
1.17593017626622
1.175948676023704
1.175972863193715
1.176003287279987
1.176040407119548
1.17608451945286
1.176135663359586
1.176193540286174
1.176257442889804
1.176326260999749
1.176398343582016
1.176470735452289
1.176539742008054
1.176603117755444
1.176655970833358
1.176693532275374
1.176727229621792
1.176754972115445
1.176776954408457
1.17679328486811
1.176804076325886
1.176808524921621
1.176806383598189
1.176798481520433
1.176784111669308
1.176762332273484
1.176732447104324
1.176694072018481
1.176646953742701
1.176590988529888
1.176526563183332
1.176454762172969
1.176377190160512
1.176296245731717
1.176215324009157
1.176138101082466
1.176069735354422
1.176016471399739
1.175978060522886
1.175946342923262
1.175922123215854
1.175905611798784
1.175895336513912
1.175891601560278
1.175894211137487
1.17590126775164
1.175913144862158
1.175930031430916
1.175952351453649
1.175980648675149
1.176015402558871
1.176056900168487
1.176105202731728
1.176160133444788
1.176221193007419
1.17628749065702
1.176357674280562
1.176429392146338
1.176499245319829
1.176564586444581
1.176621857652376
1.176664382011096
1.176699241561115
1.176729397197737
1.176754041753018
1.176773073137631
1.176786184227346
1.176793327006256
1.176793992874165
1.176788265006227
1.176776497949208
1.176757602179705
1.176730907099847
1.176695778984726
1.176651774447755
1.176598813939629
1.176537335289992
1.176468265537151
1.176392876599703
1.176313107763979
1.176232024355618
1.176153053866603
1.176080494395203
1.17602094593172
1.175977156142038
1.175943030427449
1.175915626231017
1.175896280757504
1.175883639340057
1.175877810993593
1.175878554591252
1.175884148157127
1.175894564604119
1.175909900239543
1.175930475098356
1.175956773274282
1.175989264377385
1.176028270777891
1.176073925843284
1.17612614042346
1.176184524926022
1.176248312451888
1.17631636328457
1.176386918328099
1.176457014585564
1.176523358380199
1.176583634195776
1.176632829887013
1.176668460196109
1.176701053603303
1.17672793536217
1.176749227380822
1.176764758780613
1.176774678644566
1.176778143243733
1.17677503127519
1.176766175270423
1.176750390797822
1.176726663954699
1.17669438519001
1.17665335390795
1.176603595488894
1.176545303178247
1.176479020028864
1.176405854903585
1.176327577453402
1.176246871805784
1.17616693018105
1.17609143196768
1.176026377586909
1.175976615767391
1.175939733625573
1.175909179449317
1.175886591001365
1.17587158369419
1.175863580930294
1.17586220146144
1.175866404311048
1.175875305139266
1.175889100185526
1.175907947245411
1.175932270518738
1.17596255866649
1.17599921023027
1.176042420919512
1.176092119220362
1.176147965357747
1.176209330868796
1.176275276222989
1.176344381759083
1.176414128153505
1.176481265634515
1.176543580041395
1.176597364005396
1.176636641961564
1.176670195944864
1.176699118035214
1.176722767645203
1.176740939458838
1.176753363001415
1.176759653403738
1.176759615900496
1.17675337835651
1.176740446917174
1.176719765515308
1.176690832683681
1.176653319152106
1.176606903640413
1.176551484329101
1.176487611828259
1.176416550089857
1.176339898074471
1.176259821269681
1.176179318459739
1.176101698598227
1.17603193003835
1.175976117918114
1.175934645928054
1.175901374109465
1.175875614222793
1.175858251678888
1.175847644623642
1.175843832536715
1.175846556351288
1.175853891715185
1.175866168926972
1.175883387054222
1.175905826197835
1.175933999413893
1.175968379572
1.176009204375788
1.176056460767533
1.17610991941686
1.176169066358739
1.176233017697671
1.176300511144008
1.176369561012569
1.17643720229972
1.176500570254542
1.176557149222333
1.176602303451804
1.176635733295991
1.176666521604043
1.176692097004817
1.176712369707027
1.176726946983735
1.176735949649842
1.176738721721318
1.176735154631033
1.176725612312705
1.176708569270503
1.17668308527467
1.17664868652293
1.17660515579782
1.176552569440563
1.176491458518337
1.176422812466112
1.176347943790262
1.176268786757979
1.176188166670925
1.176109079086319
1.176035717152
1.175974451243476
1.175927734464754
1.175891941815699
1.175862860072436
1.175842427030376
1.175829236412667
1.175823333501674
1.17582438471643
1.175830244361621
1.175840970204157
1.175856551927912
1.175877192251414
1.17590332020384
1.17593540643022
1.175973794131423
1.176018614723277
1.176069723866132
1.176126656152289
1.176188620016728
1.176254536053194
1.176322765109216
1.176390580631223
1.176454999762313
1.176513936624792
1.176563660365654
1.176599676655259
1.176631006319079
1.176658046862292
1.176680082662168
1.176696871710754
1.176708226612216
1.176713770683322
1.17671345237022
1.176707153260889
1.176693649242818
1.176671659349841
1.176640706096106
1.176600652843
1.176551485294375
1.176493388646517
1.176427045648104
1.176353816407874
1.1762756873108
1.176195295544361
1.176115450554141
1.176039546841697
1.175973300384045
1.175921293254585
1.175881883179865
1.175850167912105
1.175826447661971
1.175810783765134
1.175802689691095
1.175801531453592
1.175805944442738
1.175815243200736
1.175829385329994
1.175848327194769
1.175872401447576
1.175902162373347
1.175938106650782
1.175980448568743
1.176029091217237
1.176083712432125
1.176143721221876
1.176208136836368
1.176275489009746
1.176343429788358
1.176408979259698
1.176469589769696
1.176522340377432
1.17656349748315
1.176594196828304
1.176622361959231
1.176645645919857
1.176663903512537
1.176676807192812
1.176684534612988
1.176686853555403
1.176683464362261
1.176673741659712
1.176655862209729
1.176629010191745
1.176592811835019
1.176546988067281
1.176491588707797
1.17642737663026
1.176355877448675
1.176278992081303
1.176199046282478
1.176118709551861
1.176040928325887
1.175970704593508
1.175913665165679
1.175869827008806
1.175835705976454
1.175808582895285
1.175790458396767
1.175779792682097
1.17577624927894
1.17577934231582
1.17578710225748
1.175799756931372
1.175817143565447
1.175839423860747
1.175867067774736
1.175900569877889
1.175940253140104
1.175986230936614
1.176038379092664
1.176096229851425
1.176158912039134
1.176225200898628
1.176293133651783
1.176359759078559
1.176422330701033
1.17647827222977
1.176523750159755
1.17655682449579
1.176584759995441
1.176608489336323
1.176627259226135
1.176641088778953
1.176650118488869
1.176654363662899
1.176653954746752
1.17664799110823
1.176634355427788
1.176611748404492
1.176579580213342
1.176537460476935
1.176485386126624
1.176424030712212
1.176354757267895
1.176279326248486
1.176200054251675
1.176119775045756
1.176041221635304
1.175968428185734
1.175907021319557
1.175858951600795
1.175822043106075
1.175792414189348
1.175771203284092
1.175757679543756
1.17575179610546
1.175753230623364
1.175759545858801
1.175770823066063
1.175786866800832
1.175807612022125
1.175833317182181
1.17586447325365
1.1759015661947
1.175944848349344
1.175994254948483
1.176049483750777
1.176109989199526
1.176174832757686
1.176242385396347
1.176309933939566
1.176374535543544
1.176433578733953
1.176483258277349
1.176521075323069
1.176549279459171
1.176573471676331
1.176592152424812
1.176605602770499
1.176614099682355
1.176618384172182
1.176619367481231
1.176616249022644
1.176606834804482
1.176589310325726
1.17656244988902
1.176525264224306
1.176477298896845
1.176418861666137
1.176351132553044
1.176276109203235
1.176196607259105
1.176115844648473
1.176036441032769
1.175961543031715
1.175896246999936
1.175843977620344
1.175803605556687
1.175772331879527
1.175747930958928
1.175731622557723
1.175723124563343
1.175721887048732
1.175726518917713
1.175736246803973
1.17575096993158
1.17577042637718
1.17579469244931
1.175824092965059
1.175858993430022
1.175899638133479
1.175946144596691
1.175998501998858
1.176056396766061
1.176119054486669
1.176185269928489
1.176252910100487
1.17631900315637
1.176381033480648
1.176435481639547
1.176478279579913
1.176509929702777
1.176535504474553
1.176554958766969
1.176568274120641
1.176575919393857
1.176578823815256
1.176579023670442
1.176576551081296
1.176569808365422
1.176557258346904
1.176537022047189
1.176507042762858
1.176465532475441
1.17641156894651
1.176345763945625
1.176270595008702
1.17619001028228
1.176108353827274
1.17602875163012
1.175953776946101
1.175887121630844
1.175831596066709
1.175787531186813
1.175753955395285
1.175726737539651
1.175707970397433
1.175697195884938
1.175693766121385
1.175697249833833
1.175705729277138
1.175719405165387
1.17573832260452
1.175762502172315
1.175791877424436
1.175826347614106
1.175865588513004
1.175908763602366
1.175954676273384
1.176002163566969
1.176053073331189
1.176105459909142
1.176196897609811
)
;

boundaryField
{
    inlet
    {
        type            calculated;
        value           uniform 1.176395973595895;
    }
    outlet
    {
        type            calculated;
        value           uniform 1.176217946360778;
    }
    frontAndBack
    {
        type            empty;
    }
}


// ************************************************************************* //
