/*--------------------------------*- C++ -*----------------------------------*\
| =========                 |                                                 |
| \\      /  F ield         | OpenFOAM: The Open Source CFD Toolbox           |
|  \\    /   O peration     | Version:  v2012                                 |
|   \\  /    A nd           | Website:  www.openfoam.com                      |
|    \\/     M anipulation  |                                                 |
\*---------------------------------------------------------------------------*/
FoamFile
{
    version     2.0;
    format      ascii;
    class       volScalarField;
    location    "0.013";
    object      T;
}
// * * * * * * * * * * * * * * * * * * * * * * * * * * * * * * * * * * * * * //

dimensions      [0 0 0 1 0 0 0];


internalField   nonuniform List<scalar> 
1000
(
299.9866023037915
299.988344254533
299.9820030096059
299.9773765798888
299.973014819618
299.9692794763091
299.9659055702735
299.962889182824
299.960290561713
299.9586238650621
299.9582609970911
299.9584948854222
299.9590395018824
299.9600184904111
299.9617363716062
299.9642906457635
299.9675920076117
299.9714934416043
299.9758739492559
299.9806520811023
299.9857645096027
299.9911431277629
299.9967046003134
300.002350341287
300.0079710793475
300.0134541693077
300.0186974733353
300.0236339448228
300.0282539702405
300.0325735508824
300.0364650084738
300.0393735855594
300.0406408802526
300.0408010774453
300.0407720578718
300.0405516615123
300.0399224363192
300.0386816191111
300.0366595120104
300.033777069902
300.0300712137517
300.0256727899751
300.0207538385134
300.0154757503671
300.0099641276285
300.0043138521053
299.9986087060983
299.9929365574972
299.9873883954183
299.982039416294
299.9769242923557
299.9720397477344
299.9674301114662
299.9634088251169
299.9607269801083
299.9598062118686
299.9597401360575
299.959780455405
299.959992452217
299.9605351133401
299.9615916973325
299.9633271215975
299.9658564764155
299.9692151734055
299.9733488826754
299.9781272221829
299.9833773035018
299.988923087173
299.9946138132303
300.0003330941555
300.0059945203601
300.0115376202331
300.0169309850112
300.0221720760063
300.0272575845033
300.03208341647
300.036236544177
300.0389091619592
300.0397832886026
300.0398453801789
300.0398022079694
300.0396277914309
300.0391685439334
300.0382721084375
300.0367818183039
300.0345693103085
300.0315582970923
300.0277441617592
300.0231990076365
300.0180594655878
300.0125012127745
300.0067077159601
300.0008408097992
299.9950199900783
299.989314757929
299.9837491998658
299.9783179881057
299.9730305912697
299.9680332555927
299.9638354862812
299.9612961603389
299.9605572436615
299.960519297873
299.9605515775284
299.9607257045197
299.9611526118826
299.9619798423665
299.963348329291
299.9653815584542
299.9681641220135
299.9717248079565
299.9760256246138
299.9809627302892
299.98638219398
299.9921068068107
299.9979654828098
300.0038187560232
300.0095773232121
300.0152082657143
300.0207179361252
300.0260955958027
300.0311925060233
300.0355176419415
300.0382260748879
300.0390905965171
300.0391539573334
300.0391171880516
300.038983617685
300.0386251694914
300.0379198860764
300.0367318235427
300.034935389726
300.0324304864881
300.0291604378376
300.0251255774075
300.0203892783029
300.0150738014984
300.0093440282989
300.0033800196008
299.9973446343064
299.9913571158331
299.9854806397182
299.9797343255507
299.9741511026349
299.9689108008165
299.9645882248614
299.9620093888083
299.9612323466135
299.9611490792875
299.961128464955
299.9612225170421
299.961528661697
299.9621791298753
299.9633074624118
299.9650348637396
299.9674545021196
299.970618118948
299.9745261472885
299.9791219170561
299.984292967977
299.9898837110854
299.99572044002
300.0016423468424
300.0075272433169
300.0133099378018
300.0189685678315
300.024469909547
300.0296696666337
300.0340544134012
300.0367668417588
300.0378595086598
300.0380359605778
300.0382055608324
300.0382827744061
300.0382276006202
300.0379326998176
300.0372543144796
300.036048384845
300.0341849383683
300.0315699559573
300.028154108456
300.0239372240729
300.0189737114513
300.0133702776129
300.0072695060743
300.0008259411932
299.9941755002987
299.9874140654931
299.9806247564146
299.9739117094279
299.9674870451192
299.962073278475
299.9586403286039
299.9566298125815
299.9550275525854
299.953898480714
299.9530793292427
299.9525147477062
299.9523206507035
299.9525913745674
299.9533683299928
299.9548687313076
299.9572299868851
299.9605034804732
299.9646720352305
299.9696731075457
299.9754054893276
299.9817366095035
299.9885189990187
299.995623992274
300.002963740579
300.0104322661681
300.0178878702675
300.0251544379781
300.0314790756826
300.0358610765093
300.0393670299921
300.0421842538647
300.0443496198968
300.0460191376946
300.0472881694118
300.0482148090508
300.0485687455435
300.048196296473
300.0471665931452
300.0453084184199
300.0424748425363
300.0385662276587
300.0335979040318
300.0276935489817
300.0210326593128
300.0137970856256
300.0061346395806
299.9981738832628
299.9901065538368
299.982185152983
299.9747438631294
299.968509000598
299.9640878860448
299.9607584658233
299.958084199212
299.9561554081269
299.9548120669556
299.9538930342611
299.9534245240268
299.9534724968874
299.9540159003073
299.9551084444115
299.9568694125424
299.9594325046633
299.9628937066298
299.9672704056848
299.9725004914014
299.9784659735926
299.9850250574938
299.9920437243147
299.9994123535977
300.006992888517
300.0145303524741
300.0217427800624
300.0282476902563
300.0332711308533
300.0369778456312
300.0401809657267
300.0426949832644
300.0446234850544
300.0460393873152
300.0470012543945
300.0474068709649
300.0471723582011
300.0463447098949
300.0448247624867
300.0424673224586
300.0391340762787
300.0347642202439
300.029388503739
300.0231043822093
300.0160571263516
300.0084219527964
300.0003796453479
299.9921602041832
299.9840731097539
299.9764488706916
299.9698140641835
299.9648079143778
299.9612530244439
299.9582695127875
299.9560327724905
299.9544637862581
299.9534347220662
299.9529332546251
299.9529660368889
299.9534717769414
299.9544627704194
299.9560152204491
299.9582385535228
299.9612458260477
299.9651117229206
299.9698473386171
299.9753999650538
299.9816711386869
299.9885314427594
299.9958359995104
300.0034276728206
300.0110461895459
300.0183434112839
300.0250823014558
300.0306947848471
300.034653771956
300.0381080308599
300.0409033990017
300.043091189285
300.0447242351194
300.0458259772224
300.0463694188978
300.0462928867345
300.045610078175
300.0443044997036
300.0422629815068
300.0393672786281
300.0355160109713
300.0306613949268
300.0248263031858
300.0181090083366
300.0106673432436
300.0026855411217
299.9943967799545
299.9861406204183
299.9782794674196
299.9712203295667
299.9656148853502
299.9616729186131
299.9584658155313
299.9559466443434
299.9541464841898
299.9529634980053
299.9523330129213
299.9522557871586
299.9526931085664
299.9535898150586
299.9550013572235
299.9569995139178
299.959685899672
299.963148464045
299.9674357917804
299.9725498369084
299.9784440452464
299.9850221778635
299.9921484006086
299.9996595058005
300.0073100791673
300.0147433819913
300.0216899430677
300.0277527192935
300.0322082822951
300.0358150476352
300.0388747987024
300.0413224479641
300.0431851557711
300.0444668980376
300.0452152712106
300.0453291465741
300.0447898357793
300.0436981507077
300.041927441001
300.0393741525274
300.0359245969074
300.0315101634537
300.0261245711481
300.0198170191591
300.0126897001942
300.004898382744
299.9966614580133
299.9883053439103
299.9802099772959
299.9727527984643
299.9665553844054
299.9620704533727
299.9586682876406
299.9558594762354
299.9538078013856
299.9524371651596
299.951618232831
299.9513885477175
299.9517374481156
299.952519917244
299.9537981300855
299.9556206165871
299.9580658806457
299.961214847885
299.9651303426096
299.9698445958045
299.9753482611734
299.9815839497334
299.9884443376029
299.9957786832185
300.0033811649982
300.0109223406649
300.0180390356552
300.0244636338826
300.0296179535183
300.0333391485703
300.0366738046968
300.0393479915575
300.0414257913523
300.0429304250785
300.0439035884193
300.0442398311847
300.0439102145559
300.0430288388533
300.0415002591034
300.0392229483217
300.0360990106526
300.0320693790309
300.0271065407447
300.0212116265973
300.0144396240814
300.0069189374843
299.9988384242687
299.9904776439307
299.9822150100672
299.9744379740636
299.9676767258893
299.9625268537993
299.9588611109563
299.955770944057
299.9534443694051
299.9518394653039
299.9508152061263
299.9504166421258
299.9506368544003
299.951301114695
299.9524439137613
299.9541016445144
299.9563388899018
299.9592294728684
299.9628384166227
299.9672068609728
299.9723442292803
299.9782233339813
299.9847703910989
299.991864049536
299.9993365845895
300.0069011987389
300.0141682060407
300.0208938644861
300.0266212026226
300.0307077097713
300.0342269870026
300.03715718202
300.0394939929446
300.0412589280369
300.0424522608511
300.0430287425404
300.0429486372173
300.0422572279825
300.0409474638842
300.0389346753404
300.0361370968359
300.0324765716022
300.0278942635284
300.0223715311367
300.0159520087877
300.0087415873477
300.0008893562342
299.9926187527687
299.9842818845311
299.9762680532551
299.9690198427888
299.9632007533048
299.9590527244455
299.9557358532088
299.9531137634222
299.9512503960593
299.9500233741189
299.9494371881308
299.9494748996873
299.9500062123059
299.9510162791246
299.9525251219563
299.9545808360711
299.9572485602156
299.9605900551861
299.9646508293058
299.9694537616009
299.9749917399708
299.9812171895305
299.9880357776987
299.9953057852466
300.002801448147
300.0101731627764
300.0170967412751
300.0232474135626
300.0279595505038
300.0316038163695
300.0347955981184
300.0373913553302
300.0393998211013
300.0408070847753
300.0416501906758
300.0418288594457
300.0413368323543
300.0402888732452
300.0385599816385
300.0360594833281
300.0327045217442
300.0284484968693
300.0232812803671
300.0172239271689
300.0103382210821
300.0027422043354
299.9946265743861
299.9862953907686
299.9781174781152
299.9704914406142
299.9640567455003
299.9592799242554
299.9557501594613
299.9527908425856
299.9506299885796
299.9491905561295
299.9483910007931
299.9482243878518
299.9486292336802
299.9494925893208
299.9508542313233
299.9527426964002
299.9552117040808
299.9583173216462
299.9621063535372
299.9666090500779
299.9718293540793
299.9777367410519
299.9842589613815
299.9912826556608
299.9986392747574
300.0060271962707
300.0130693853338
300.0195367330151
300.0249301040375
300.028762959992
300.0322014555915
300.0350322712854
300.0372752923966
300.0389415969204
300.0400427130603
300.0404966278425
300.0402781423622
300.0394718577547
300.0380056198402
300.0357833157717
300.0327338762783
300.0288180636146
300.0240099812674
300.0182989786952
300.0117244548885
300.0043970047728
299.9964803209213
299.988219141637
299.9799599514034
299.972077965624
299.9650997572954
299.9596628452434
299.955741974385
299.9525042784165
299.9500319230524
299.9483464144425
299.9472974927811
299.9469162212823
299.9471826189096
299.947902981733
299.949115425645
299.9508392315405
299.9531176659808
299.9560062113341
299.9595537806254
299.9637896399517
299.9687199966842
299.9743267569119
299.9805589075168
299.9873254824096
299.9944884365495
300.001807721848
300.0089364543437
300.0156044968119
300.0214488253691
300.0257881766855
300.02934531611
300.0324224094508
300.0349371142872
300.0368790347127
300.0382168493186
300.0389456723575
300.0390136187598
300.0384291770214
300.0372285136593
300.0353004412353
300.0325765105664
300.0289920215175
300.0245016818697
300.0190973131103
300.0128235237583
300.0057748439679
299.9980810068466
299.9899398691634
299.9816642417229
299.973603948153
299.9661977265148
299.9601193469389
299.9556494141101
299.9521658974678
299.9493684625075
299.9473936432124
299.9461031760753
299.9455082014086
299.9455841160886
299.9461551336852
299.9472184799603
299.9487839796442
299.9508842900256
299.9535688073498
299.9568854418828
299.9608670669707
299.9655272569511
299.9708568678843
299.9768160864614
299.9833265891697
299.9902720068113
299.9974727676815
300.0046264589261
300.0113969651658
300.0175480301651
300.0225682412437
300.0262040882693
300.0295299834713
300.0322730105997
300.0344456309026
300.0360304271799
300.0370426263721
300.0373961455983
300.037078615685
300.0361749810866
300.0345643708996
300.0321433082597
300.0288495634492
300.024662622526
300.0195850188136
300.0136364063928
300.0068721314119
299.9994052843894
299.9914164052743
299.9831793895339
299.9750200315556
299.9673138984782
299.9606735336221
299.9555939988221
299.9518291063637
299.9487101140212
299.9464042386385
299.944872247687
299.9440552979719
299.9439144820895
299.9443435348842
299.945252172402
299.9466604193137
299.9485843746363
299.9510673240204
299.9541591256789
299.9579004316388
299.962311182528
299.967384036451
299.9730842664291
299.9793476796956
299.9860783382891
299.9931313092456
300.000249446768
300.0071010957693
300.0134603285177
300.0189488614639
300.0229569945841
300.0263809642893
300.0293322336593
300.0317454559275
300.0335997007622
300.0348673847361
300.035509245722
300.0355054236348
300.0348689663171
300.0335494672465
300.0314391505346
300.0284868199527
300.0246588370741
300.0199223655988
300.0142669510889
300.0077487090982
300.000496554431
299.992673604575
299.9845008160142
299.9762842270541
299.9683615797834
299.9612400482254
299.9555429219438
299.9513094942567
299.9479130726813
299.9452834377662
299.9435110064662
299.9424281948169
299.9420390434016
299.9423171131933
299.9430659525823
299.9443192694237
299.9460769611929
299.9483676074331
299.951243559777
299.954753060348
299.9589203391347
299.9637440237302
299.9692006622897
299.9752377488193
299.9817650219416
299.9886536071744
299.9957008132215
300.0026040298758
300.0090709189085
300.0148447993628
300.0194526663744
300.0228640292022
300.026005786052
300.0286155615219
300.0306842129682
300.0321716838395
300.0330903151656
300.0333731783531
300.0330092024655
300.0320355172638
300.030296445543
300.0276960240865
300.024185870517
300.0197437697256
300.0143774497863
300.0081410343121
300.0011354237366
299.9934944986301
299.985415611611
299.9771870849249
299.9691146591034
299.9616263609421
299.9553725319004
299.9506037091882
299.9469499454501
299.9439811920327
299.9418952999945
299.9405487374016
299.9399461386441
299.9400534640621
299.9406516655418
299.9417466263993
299.9433372882277
299.9454443350505
299.9481115444241
299.9513869348694
299.9553055087973
299.9598806436017
299.9650975637462
299.9709087194081
299.977233272084
299.9839610105476
299.990924604308
299.9978457642212
300.0044200817511
300.0104347221624
300.0155090035341
300.0191843696954
300.0223814276926
300.0251407601912
300.0273893601826
300.0291025503663
300.0302612215993
300.0308269435228
300.0307944679205
300.030151712435
300.0287737525946
300.0265298597106
300.0233712804464
300.0192840271258
300.0142665828626
300.0083377777228
300.0015672120759
299.9940936190287
299.9861196649139
299.9779144651432
299.9697647543995
299.962017026638
299.9552548019976
299.9499459292755
299.9459228748202
299.9426852641751
299.9402637817906
299.9386647191279
299.9378384253562
299.9377201947253
299.9381707192793
299.9391200099917
299.9405637313967
299.9424974219298
299.944955024231
299.9479930984364
299.9516623173524
299.9559845206427
299.9609497760392
299.9665251554973
299.9726502910613
299.9792250365132
299.9860992922784
299.9930333974993
299.999723226928
300.0059088066648
300.011292095183
300.0154921490928
300.0186249442428
300.0214990873623
300.0238750975977
300.0257381750161
300.0270549088218
300.0278434380178
300.0280800724173
300.0277342399774
300.02674212079
300.0249176499775
300.0221775551104
300.0184836567704
300.0138074225885
300.0081538682385
300.0016007682069
299.9943037414896
299.9864567277522
299.9782970519664
299.9700971580491
299.9621577942654
299.9549895800349
299.94916699473
299.9446918905784
299.941208670191
299.9384397887378
299.9365895165412
299.9355006860718
299.9351389581383
299.9354547394485
299.9362469560475
299.9375388501263
299.9393138000763
299.9415883020893
299.9444103121041
299.94783029201
299.9518811799316
299.9565745124038
299.9618975725392
299.9678025701271
299.9742005397875
299.9809664341009
299.9878998928285
299.9946997009375
300.0010855776371
300.0067946401856
300.0114357331249
300.0148109580913
300.0176617251977
300.02008323137
300.0219986228957
300.023409864431
300.0243313023914
300.0247645009165
300.0247227796667
300.0241142351877
300.0227227936818
300.0204158519618
300.0171331895074
300.0128349205859
300.007520666615
300.001259086533
299.994189203731
299.9864906163942
299.9783997086921
299.9702056850136
299.9621875018541
299.95475697402
299.9484885434123
299.9435814459076
299.9398136439199
299.9367889271436
299.9346235516877
299.9332429363423
299.9326423071085
299.9327887714683
299.9334335102104
299.9345848005474
299.9362226844173
299.9383405134789
299.9409646552405
299.9441452077495
299.947931751307
299.9523500120703
299.9573933397365
299.9630308399286
299.9692067810979
299.9758253232836
299.9827201596843
299.9896143526707
299.9962075616513
300.0022332983306
300.0073032765749
300.011162563458
300.0140407961102
300.0165095807718
300.0184159095668
300.0197884811198
300.0206555682138
300.0210927912481
300.0211931429745
300.0208749268228
300.0199142477368
300.018125932878
300.0153848813181
300.0115900988806
300.0066951500053
300.0007313630782
299.9938190755699
299.9861620799381
299.9780476838055
299.9698042970177
299.9616993064743
299.9540539258693
299.9473884557398
299.9420526079494
299.9379311934521
299.9347385401194
299.9322474772674
299.9305825597461
299.9297150037813
299.9295886860332
299.9300615894359
299.9310547388077
299.9325578350185
299.9345441341668
299.937021412439
299.9400228088379
299.9435856104509
299.9477347237848
299.9524821086978
299.9578266197731
299.9637362060512
299.9701317804466
299.9768902915624
299.9837940116807
299.9905396300526
299.9968704366631
300.0024272978723
300.0067951194284
300.0100252316574
300.012635300454
300.0146207168879
300.015979588747
300.0167597068877
300.0170559516699
300.0170759218517
300.0168226759917
300.0161332053855
300.0148506196151
300.0127833523244
300.0097219546766
300.0054846367967
299.9999782354976
299.9932664949665
299.9856037887286
299.9773942150053
299.9690811273191
299.9609815852953
299.9533533503616
299.9465659688886
299.940899937648
299.9363858292762
299.9329207761159
299.9300770552708
299.9280643315653
299.9268146423962
299.9263201818121
299.9264589859964
299.9270035356092
299.9281037046246
299.9297394127187
299.9318686358384
299.9344666800514
299.9375581174105
299.9412761797146
299.9459014342671
299.9518151053274
299.9592317359899
299.9680004546008
299.9764703831808
299.9848570965765
)
;

boundaryField
{
    inlet
    {
        type            fixedValue;
        value           uniform 300;
    }
    outlet
    {
        type            inletOutlet;
        inletValue      uniform 300;
        value           uniform 299.9852141759552;
    }
    frontAndBack
    {
        type            empty;
    }
}


// ************************************************************************* //
