/*--------------------------------*- C++ -*----------------------------------*\
| =========                 |                                                 |
| \\      /  F ield         | OpenFOAM: The Open Source CFD Toolbox           |
|  \\    /   O peration     | Version:  v2012                                 |
|   \\  /    A nd           | Website:  www.openfoam.com                      |
|    \\/     M anipulation  |                                                 |
\*---------------------------------------------------------------------------*/
FoamFile
{
    version     2.0;
    format      ascii;
    class       volVectorField;
    location    "0.013";
    object      U;
}
// * * * * * * * * * * * * * * * * * * * * * * * * * * * * * * * * * * * * * //

dimensions      [0 1 -1 0 0 0 0];


internalField   nonuniform List<vector> 
1000
(
(-0.0027484560231785 0 0)
(-0.03441539809554454 0 0)
(-0.04260809303443676 0 0)
(-0.05781523694355042 0 0)
(-0.0717184736618387 0 0)
(-0.08461660231475786 0 0)
(-0.09561753245611249 0 0)
(-0.1050252208127384 0 0)
(-0.1130966358992476 0 0)
(-0.1185985447293956 0 0)
(-0.1201910433912322 0 0)
(-0.1200736270605899 0 0)
(-0.1191943207712424 0 0)
(-0.116655000481647 0 0)
(-0.1118008290334387 0 0)
(-0.1044454185876817 0 0)
(-0.09485914879825445 0 0)
(-0.08346562728191444 0 0)
(-0.07062554988807153 0 0)
(-0.05659345373526826 0 0)
(-0.04157557581154232 0 0)
(-0.02579228820671046 0 0)
(-0.009505393108392912 0 0)
(0.006985416183340008 0 0)
(0.02335810333177414 0 0)
(0.03928635051304053 0 0)
(0.05447453324792687 0 0)
(0.06873012874577214 0 0)
(0.08203461142107039 0 0)
(0.09445081022844323 0 0)
(0.1056209775684963 0 0)
(0.1139428434652144 0 0)
(0.1175211687222628 0 0)
(0.1179264551676356 0 0)
(0.1178026862923516 0 0)
(0.117126027252203 0 0)
(0.1153171505739189 0 0)
(0.1117498417898681 0 0)
(0.1059290900390946 0 0)
(0.09762614253015926 0 0)
(0.0869436821358338 0 0)
(0.07425427414046501 0 0)
(0.06005151515094397 0 0)
(0.04480147852766209 0 0)
(0.02886816774705871 0 0)
(0.01252532932630681 0 0)
(-0.003985313497370549 0 0)
(-0.02040583920164303 0 0)
(-0.03646674638320053 0 0)
(-0.05194959607735588 0 0)
(-0.06675877045003462 0 0)
(-0.08090245898495947 0 0)
(-0.09424158578822059 0 0)
(-0.1058665269454045 0 0)
(-0.1136196879011691 0 0)
(-0.1162887828681701 0 0)
(-0.1164828293990102 0 0)
(-0.1163422829344663 0 0)
(-0.1157340573289193 0 0)
(-0.1141579768092597 0 0)
(-0.1111006011522221 0 0)
(-0.1060806351666632 0 0)
(-0.09876485070665002 0 0)
(-0.0890498889596894 0 0)
(-0.07709401798705656 0 0)
(-0.06327510969370082 0 0)
(-0.04809104690304494 0 0)
(-0.03204884936182242 0 0)
(-0.01558702727181387 0 0)
(0.0009539139213984264 0 0)
(0.0173266979738311 0 0)
(0.03336303833165412 0 0)
(0.04896961781498117 0 0)
(0.06412759902110395 0 0)
(0.07882754289779066 0 0)
(0.09278617103731938 0 0)
(0.1048132690664115 0 0)
(0.1125477964304898 0 0)
(0.1150587719949036 0 0)
(0.1152258721101395 0 0)
(0.1151320972568058 0 0)
(0.114608354307421 0 0)
(0.1132856241495883 0 0)
(0.1106920905071927 0 0)
(0.1063810980897402 0 0)
(0.0999814134295158 0 0)
(0.09127361747713082 0 0)
(0.08024239955588966 0 0)
(0.06709454733458431 0 0)
(0.05222769058481045 0 0)
(0.03615287155208792 0 0)
(0.0193976722201603 0 0)
(0.002425028841363135 0 0)
(-0.01441619297563613 0 0)
(-0.03091621025515107 0 0)
(-0.0470076793065296 0 0)
(-0.0627201838359023 0 0)
(-0.07802686961314947 0 0)
(-0.09248324177496622 0 0)
(-0.1046092482111121 0 0)
(-0.1119475243368066 0 0)
(-0.1141037784638596 0 0)
(-0.1142303190380259 0 0)
(-0.1141003793675784 0 0)
(-0.1136174531350793 0 0)
(-0.112376495053427 0 0)
(-0.1099846996573157 0 0)
(-0.1060271067040534 0 0)
(-0.1001463865022437 0 0)
(-0.09209653873181513 0 0)
(-0.08179612432271154 0 0)
(-0.06935637338499159 0 0)
(-0.0550749849114765 0 0)
(-0.03939491593272097 0 0)
(-0.02283275153643455 0 0)
(-0.005888595965696624 0 0)
(0.01103766957001757 0 0)
(0.02769551529056585 0 0)
(0.04398585971806138 0 0)
(0.05991416340664301 0 0)
(0.07545347868830754 0 0)
(0.09019703801045796 0 0)
(0.1027259544719132 0 0)
(0.110569390376864 0 0)
(0.11306348725253 0 0)
(0.1132424275882049 0 0)
(0.1131836651775648 0 0)
(0.1127754974107676 0 0)
(0.1117362505646308 0 0)
(0.109674984816494 0 0)
(0.1062100790963281 0 0)
(0.1009845159281996 0 0)
(0.09371962091846375 0 0)
(0.08425984161842573 0 0)
(0.07261120258969017 0 0)
(0.05895856965611342 0 0)
(0.04364973519791097 0 0)
(0.02714526809847939 0 0)
(0.00994434593732038 0 0)
(-0.007499966100085373 0 0)
(-0.02485454398345237 0 0)
(-0.04194181433458228 0 0)
(-0.05869471903558952 0 0)
(-0.07498451112364099 0 0)
(-0.09026344269100897 0 0)
(-0.1028502196602742 0 0)
(-0.1102920731604432 0 0)
(-0.1124045104096854 0 0)
(-0.1125139063317786 0 0)
(-0.1122591623437294 0 0)
(-0.1117091132151589 0 0)
(-0.1105806281160853 0 0)
(-0.1085548563547142 0 0)
(-0.105295623801283 0 0)
(-0.1004760364960705 0 0)
(-0.09381592261403147 0 0)
(-0.08512538596317869 0 0)
(-0.07434383553172182 0 0)
(-0.06156252777798253 0 0)
(-0.04702095741896077 0 0)
(-0.03107842898885089 0 0)
(-0.01416509755683501 0 0)
(0.003284603198700977 0 0)
(0.02089975766686176 0 0)
(0.03843440619533822 0 0)
(0.05574512443321336 0 0)
(0.07264100095569363 0 0)
(0.08856745738608507 0 0)
(0.1018804218456003 0 0)
(0.1100422413234968 0 0)
(0.1132052986541566 0 0)
(0.1134680917353558 0 0)
(0.1130152086456185 0 0)
(0.1119653041062425 0 0)
(0.1102490235704181 0 0)
(0.107687820476838 0 0)
(0.1039651140269355 0 0)
(0.09879235514728014 0 0)
(0.09190443972438124 0 0)
(0.08312466256156445 0 0)
(0.07240251449811345 0 0)
(0.05982951970149078 0 0)
(0.04563709236169063 0 0)
(0.03017569819809685 0 0)
(0.01387604617544965 0 0)
(-0.002804398821971674 0 0)
(-0.0194654706195149 0 0)
(-0.03583775437439451 0 0)
(-0.05170200741261538 0 0)
(-0.06674229783789172 0 0)
(-0.08035344075541762 0 0)
(-0.09058993712092647 0 0)
(-0.09474925493746218 0 0)
(-0.09483186339948022 0 0)
(-0.09315944168557012 0 0)
(-0.09021500091953755 0 0)
(-0.08664528218239884 0 0)
(-0.08272130738609512 0 0)
(-0.07784159687200516 0 0)
(-0.0726977888629531 0 0)
(-0.0668654540344816 0 0)
(-0.05988107424686875 0 0)
(-0.05136981407943281 0 0)
(-0.04123198860551897 0 0)
(-0.02958496004755765 0 0)
(-0.01665573366131799 0 0)
(-0.002725691633044146 0 0)
(0.0118646846191854 0 0)
(0.02672397623462364 0 0)
(0.04149985227778827 0 0)
(0.05595321351848079 0 0)
(0.06983424554743131 0 0)
(0.08279345919591739 0 0)
(0.09422323719572449 0 0)
(0.1021399683688358 0 0)
(0.1046267644321711 0 0)
(0.1035855930407757 0 0)
(0.1003908108371786 0 0)
(0.09549397641652801 0 0)
(0.08967720214869519 0 0)
(0.08344077411151105 0 0)
(0.07714560448673512 0 0)
(0.07008845610892629 0 0)
(0.06284668262401683 0 0)
(0.05527089052245298 0 0)
(0.04703886342592412 0 0)
(0.03771438778406365 0 0)
(0.02706848312737423 0 0)
(0.01515591772011765 0 0)
(0.002224616503214202 0 0)
(-0.01142729411071468 0 0)
(-0.02550911354101366 0 0)
(-0.03979664327225192 0 0)
(-0.05411733003115251 0 0)
(-0.06812746302558513 0 0)
(-0.08126639968077122 0 0)
(-0.09265009688508732 0 0)
(-0.1004173153819558 0 0)
(-0.1032464833576496 0 0)
(-0.1029970229982193 0 0)
(-0.100964575163268 0 0)
(-0.09724640657370984 0 0)
(-0.09237184798390144 0 0)
(-0.08701303386122913 0 0)
(-0.08130421288481676 0 0)
(-0.07463333975204169 0 0)
(-0.06794890694928897 0 0)
(-0.06066610917328503 0 0)
(-0.05256259453121304 0 0)
(-0.04328724634624476 0 0)
(-0.03256858795271477 0 0)
(-0.02036252134993855 0 0)
(-0.006863669333704625 0 0)
(0.007591997320985446 0 0)
(0.02262978610061216 0 0)
(0.03789251651002031 0 0)
(0.05309168928330806 0 0)
(0.06787148460971704 0 0)
(0.08149415253656134 0 0)
(0.09319243563512301 0 0)
(0.102070831645213 0 0)
(0.1060368375854527 0 0)
(0.1059943170119924 0 0)
(0.1037823047589584 0 0)
(0.09969275430023722 0 0)
(0.0942566014810054 0 0)
(0.08790897771634291 0 0)
(0.0811578779228174 0 0)
(0.07384637684107154 0 0)
(0.06608041868274821 0 0)
(0.05835465183943352 0 0)
(0.05033326575232091 0 0)
(0.04171987124202468 0 0)
(0.03215855064885953 0 0)
(0.02140498958202295 0 0)
(0.009423267607409188 0 0)
(-0.003637229433426765 0 0)
(-0.01751800200822565 0 0)
(-0.03193983790594086 0 0)
(-0.04663335059930493 0 0)
(-0.06115266578004974 0 0)
(-0.07477398506048302 0 0)
(-0.08671264969252238 0 0)
(-0.0956179867752505 0 0)
(-0.09978299065343987 0 0)
(-0.1003466171814579 0 0)
(-0.09907819900614452 0 0)
(-0.09611441052101195 0 0)
(-0.09172794411996391 0 0)
(-0.08650751562463252 0 0)
(-0.08068087006138712 0 0)
(-0.07377595656039677 0 0)
(-0.06692819218299581 0 0)
(-0.05964952314248002 0 0)
(-0.05183513161981615 0 0)
(-0.04318722930712384 0 0)
(-0.03339925071244439 0 0)
(-0.022286246034185 0 0)
(-0.009818338840949181 0 0)
(0.003887289438277397 0 0)
(0.01857429879060081 0 0)
(0.03388021877931684 0 0)
(0.0494062935559517 0 0)
(0.06469898746818128 0 0)
(0.07902476602233188 0 0)
(0.0914951286458585 0 0)
(0.1013693843062319 0 0)
(0.107031724998698 0 0)
(0.1081711976266301 0 0)
(0.1066971800349629 0 0)
(0.1033129652320394 0 0)
(0.09833739362572189 0 0)
(0.09220540193742456 0 0)
(0.08538057349340859 0 0)
(0.07808528795023117 0 0)
(0.06978252274469395 0 0)
(0.06192888842855995 0 0)
(0.05387804469751205 0 0)
(0.04552021638620459 0 0)
(0.03650884964710787 0 0)
(0.02655242975069394 0 0)
(0.01551067277999946 0 0)
(0.003359154731350392 0 0)
(-0.009843632372855848 0 0)
(-0.02391961682024881 0 0)
(-0.03857486511300488 0 0)
(-0.053344435834563 0 0)
(-0.06746302774952039 0 0)
(-0.08008686321891283 0 0)
(-0.09012741929227942 0 0)
(-0.09590745731171677 0 0)
(-0.09747434877669989 0 0)
(-0.09678670941381094 0 0)
(-0.09444740709423176 0 0)
(-0.09051330838880282 0 0)
(-0.08554534766061907 0 0)
(-0.07991337976483785 0 0)
(-0.07283981118237888 0 0)
(-0.06594296487098959 0 0)
(-0.05860272871946262 0 0)
(-0.05085523881526353 0 0)
(-0.04250594594886859 0 0)
(-0.03329212858677926 0 0)
(-0.02298592864265761 0 0)
(-0.01144311831269416 0 0)
(0.001370050232985357 0 0)
(0.01535378235785845 0 0)
(0.03026433177000048 0 0)
(0.045721021323754 0 0)
(0.06125288889989138 0 0)
(0.07619611763519134 0 0)
(0.08952046408356969 0 0)
(0.1003634477885292 0 0)
(0.1078165999382315 0 0)
(0.1104543394486688 0 0)
(0.1097282060293269 0 0)
(0.1070503256642031 0 0)
(0.1025963674040752 0 0)
(0.09680544253262703 0 0)
(0.09008296395677444 0 0)
(0.08284685014396756 0 0)
(0.0742108820061731 0 0)
(0.06618114108004509 0 0)
(0.05793173546301992 0 0)
(0.04953248809581033 0 0)
(0.04073771569467622 0 0)
(0.03131350274305403 0 0)
(0.02104536247418445 0 0)
(0.00975596006873263 0 0)
(-0.002642158300489518 0 0)
(-0.01607049181211985 0 0)
(-0.03030194351509536 0 0)
(-0.04496661386292615 0 0)
(-0.0593789147003128 0 0)
(-0.07263152107959163 0 0)
(-0.08375177667403078 0 0)
(-0.09119840064833712 0 0)
(-0.09399234668785687 0 0)
(-0.09391687166120846 0 0)
(-0.0921986921748222 0 0)
(-0.08881091155553245 0 0)
(-0.08417205572299528 0 0)
(-0.07868699904318102 0 0)
(-0.07175932250933718 0 0)
(-0.06473659758283845 0 0)
(-0.05733802560369367 0 0)
(-0.04960389783996623 0 0)
(-0.04140067495398884 0 0)
(-0.0325284077939639 0 0)
(-0.0227698128525945 0 0)
(-0.01195100155186145 0 0)
(3.683722400596412e-05 0 0)
(0.01321500814482866 0 0)
(0.02747112054707902 0 0)
(0.04252605807987786 0 0)
(0.05796993734754015 0 0)
(0.07320706773073145 0 0)
(0.08724574096258558 0 0)
(0.09911872650892067 0 0)
(0.1081343159573943 0 0)
(0.1125182242500413 0 0)
(0.1128160467727416 0 0)
(0.1108660980089032 0 0)
(0.1069839744412014 0 0)
(0.1015972884777634 0 0)
(0.09503994293286663 0 0)
(0.08774413789015791 0 0)
(0.07939319137659512 0 0)
(0.07086458834771352 0 0)
(0.06234268034376563 0 0)
(0.05381533076063512 0 0)
(0.04511181528645572 0 0)
(0.03600035222315576 0 0)
(0.02623536798096919 0 0)
(0.01561083436789952 0 0)
(0.003996477025279325 0 0)
(-0.008633737318702249 0 0)
(-0.02218811848674583 0 0)
(-0.03643005800882784 0 0)
(-0.05081224562388529 0 0)
(-0.06445215370120858 0 0)
(-0.07643480178224302 0 0)
(-0.08538682095500266 0 0)
(-0.08972351768645494 0 0)
(-0.09046502434432392 0 0)
(-0.08937125434936705 0 0)
(-0.08660260296386506 0 0)
(-0.08234280912489045 0 0)
(-0.07704789511016161 0 0)
(-0.07047736946119607 0 0)
(-0.06329039256317243 0 0)
(-0.0558327394506104 0 0)
(-0.04807367092604319 0 0)
(-0.03993242830856351 0 0)
(-0.03125793017718687 0 0)
(-0.02186933745213319 0 0)
(-0.01160003535563876 0 0)
(-0.0003047359759729756 0 0)
(0.01211265073246397 0 0)
(0.02563934618077105 0 0)
(0.0401077311550984 0 0)
(0.05519106583268556 0 0)
(0.07039827908724278 0 0)
(0.08492976805269072 0 0)
(0.09770410235249466 0 0)
(0.107863449842769 0 0)
(0.1141857342543548 0 0)
(0.1158623008278037 0 0)
(0.1146206270474693 0 0)
(0.111451148485418 0 0)
(0.1065387124111885 0 0)
(0.100238922527687 0 0)
(0.09296935451524156 0 0)
(0.08496039836121773 0 0)
(0.07585089313681342 0 0)
(0.067217092929899 0 0)
(0.05852760230293404 0 0)
(0.04975892778570519 0 0)
(0.04069441269123457 0 0)
(0.03115489614761956 0 0)
(0.02100589268367805 0 0)
(0.01009331780236123 0 0)
(-0.001740165536027084 0 0)
(-0.01453342411984887 0 0)
(-0.02814595100410952 0 0)
(-0.04219295051933845 0 0)
(-0.05592789725654029 0 0)
(-0.06845984882936307 0 0)
(-0.07862442573223072 0 0)
(-0.08472651131353492 0 0)
(-0.08658756871706692 0 0)
(-0.08610587955325985 0 0)
(-0.08397642797351523 0 0)
(-0.08014201307019779 0 0)
(-0.07511289716470097 0 0)
(-0.06907153627322295 0 0)
(-0.06171222832540597 0 0)
(-0.05429088752126978 0 0)
(-0.04647607596796113 0 0)
(-0.03832477368469826 0 0)
(-0.02974684590322956 0 0)
(-0.0205991181653844 0 0)
(-0.01072913655282736 0 0)
(1.466116343151057e-05 0 0)
(0.01175888063382467 0 0)
(0.02455948364619845 0 0)
(0.03834972208937412 0 0)
(0.05290450253715346 0 0)
(0.06785210348088669 0 0)
(0.08256463464745267 0 0)
(0.09597551061025016 0 0)
(0.1071229351865616 0 0)
(0.1152315393881553 0 0)
(0.1186056025781168 0 0)
(0.1182697084819216 0 0)
(0.1158440058941501 0 0)
(0.1115040821136328 0 0)
(0.1056202976046877 0 0)
(0.09854562527666337 0 0)
(0.09069828615990264 0 0)
(0.08141352801218123 0 0)
(0.07253788880761911 0 0)
(0.06355719480982198 0 0)
(0.05458110675503776 0 0)
(0.04547861790322031 0 0)
(0.03613346395263684 0 0)
(0.02638179171649629 0 0)
(0.0160085258234084 0 0)
(0.004823394111448404 0 0)
(-0.007238735709618373 0 0)
(-0.02011595620288907 0 0)
(-0.03360301457007816 0 0)
(-0.04715303683434748 0 0)
(-0.0599419780048492 0 0)
(-0.07099674527056772 0 0)
(-0.07871100435867766 0 0)
(-0.08188209714320593 0 0)
(-0.08211263843192065 0 0)
(-0.08069106732877292 0 0)
(-0.07746941894558401 0 0)
(-0.0728805473701494 0 0)
(-0.06727370050778524 0 0)
(-0.05992909835764388 0 0)
(-0.05254170353634104 0 0)
(-0.04470110684757566 0 0)
(-0.03652838751884032 0 0)
(-0.02799106452528219 0 0)
(-0.01898125406152439 0 0)
(-0.009369774470619714 0 0)
(0.0009682557635642423 0 0)
(0.01215543231478805 0 0)
(0.02429161611403043 0 0)
(0.03739570003384281 0 0)
(0.05134559905490141 0 0)
(0.06586622750733304 0 0)
(0.08047144074573062 0 0)
(0.09429263836434469 0 0)
(0.1063097409828315 0 0)
(0.1157246356796754 0 0)
(0.1210127340560698 0 0)
(0.1219502869369649 0 0)
(0.1203077141596602 0 0)
(0.1166727170599507 0 0)
(0.1112860978250735 0 0)
(0.104467448270713 0 0)
(0.09663544375716232 0 0)
(0.08777500545375172 0 0)
(0.07829662140249756 0 0)
(0.06904415882266526 0 0)
(0.05985624050180349 0 0)
(0.05067290398088437 0 0)
(0.04135361876913993 0 0)
(0.0317473678670841 0 0)
(0.02170149393275384 0 0)
(0.0110675414352576 0 0)
(-0.0002776530279995626 0 0)
(-0.01239223949973095 0 0)
(-0.02520772319615968 0 0)
(-0.0383530789387285 0 0)
(-0.05111222248309136 0 0)
(-0.06266012294222986 0 0)
(-0.07164359690131331 0 0)
(-0.07641531430230876 0 0)
(-0.07756612927042068 0 0)
(-0.07678246420082316 0 0)
(-0.07429966061481348 0 0)
(-0.07021751146334405 0 0)
(-0.06494483941166071 0 0)
(-0.05807408695208716 0 0)
(-0.05061781291977846 0 0)
(-0.04276798966096505 0 0)
(-0.03457094624357966 0 0)
(-0.02602775113503166 0 0)
(-0.01708642006093702 0 0)
(-0.007655404568091192 0 0)
(0.002368952391739061 0 0)
(0.01310741676862556 0 0)
(0.02467963490491948 0 0)
(0.03714892097631753 0 0)
(0.05046666481068479 0 0)
(0.06444672842754719 0 0)
(0.07875195918535316 0 0)
(0.09274021999536487 0 0)
(0.1053646820834458 0 0)
(0.1157198357754596 0 0)
(0.1228961366686694 0 0)
(0.1254516261725508 0 0)
(0.1246723884361414 0 0)
(0.1218823834422583 0 0)
(0.1171488569389476 0 0)
(0.1107613784685888 0 0)
(0.1031097587794051 0 0)
(0.09463756150244931 0 0)
(0.08458632015250674 0 0)
(0.0752389695254797 0 0)
(0.06580152135334043 0 0)
(0.05638539292237722 0 0)
(0.04689950957026479 0 0)
(0.0372952079074369 0 0)
(0.02749906050496201 0 0)
(0.01734689684201145 0 0)
(0.0066262998583192 0 0)
(-0.004786106975137988 0 0)
(-0.01687156790270466 0 0)
(-0.02942137100011132 0 0)
(-0.041909830312432 0 0)
(-0.05362818497336818 0 0)
(-0.06349662236127523 0 0)
(-0.06982482429941608 0 0)
(-0.07209055849872768 0 0)
(-0.07197101684552035 0 0)
(-0.07024421174795167 0 0)
(-0.06672325431799411 0 0)
(-0.06184204108529094 0 0)
(-0.05566135965361525 0 0)
(-0.04815601809160732 0 0)
(-0.04040254641938731 0 0)
(-0.0321967108120052 0 0)
(-0.02363028681582878 0 0)
(-0.01470757656320628 0 0)
(-0.005378331247258435 0 0)
(0.004437329170312212 0 0)
(0.01484101265602313 0 0)
(0.02594213974777637 0 0)
(0.03782769518582448 0 0)
(0.05051731084778413 0 0)
(0.06391718980969506 0 0)
(0.07779752371444877 0 0)
(0.09167922943293896 0 0)
(0.1046744921498582 0 0)
(0.1158584683813307 0 0)
(0.1244773068045662 0 0)
(0.1288589821841913 0 0)
(0.1292624032098124 0 0)
(0.1273451214547606 0 0)
(0.1233789895862463 0 0)
(0.1176041371020364 0 0)
(0.1102933324987098 0 0)
(0.1018663087765331 0 0)
(0.09218078671533897 0 0)
(0.0822411525384901 0 0)
(0.07242426521842991 0 0)
(0.06270909102811212 0 0)
(0.05306411084560008 0 0)
(0.04346374028202542 0 0)
(0.03381760826035578 0 0)
(0.02394549716104735 0 0)
(0.0136582580795426 0 0)
(0.002849077820906664 0 0)
(-0.008521383137440873 0 0)
(-0.02041066708373005 0 0)
(-0.03247939322392882 0 0)
(-0.04412459867099686 0 0)
(-0.05452878415328619 0 0)
(-0.06213504118768256 0 0)
(-0.06568546998544889 0 0)
(-0.06633886178143687 0 0)
(-0.06534934994564739 0 0)
(-0.06256115728078872 0 0)
(-0.05826084983085299 0 0)
(-0.05276149071793454 0 0)
(-0.04533766040886002 0 0)
(-0.03774969241339492 0 0)
(-0.02958433851843921 0 0)
(-0.02101997818837474 0 0)
(-0.01211129808160844 0 0)
(-0.002831786080147421 0 0)
(0.006869843821056378 0 0)
(0.01704842473469862 0 0)
(0.02778017510635273 0 0)
(0.03916341852540207 0 0)
(0.05126939259550709 0 0)
(0.06407346399436684 0 0)
(0.07742639018813345 0 0)
(0.09101174588409032 0 0)
(0.1041745689622711 0 0)
(0.1159509113347277 0 0)
(0.1255125654417465 0 0)
(0.1318138181847569 0 0)
(0.1337564131735987 0 0)
(0.1327152092437832 0 0)
(0.1296849284962118 0 0)
(0.1246461889686491 0 0)
(0.1178170409360213 0 0)
(0.1095840367850791 0 0)
(0.1003898673340065 0 0)
(0.08975467405767869 0 0)
(0.07978177299358535 0 0)
(0.06980354623131303 0 0)
(0.05992303824040408 0 0)
(0.05009461711223893 0 0)
(0.04030445023851963 0 0)
(0.03051649832898833 0 0)
(0.02061990131975189 0 0)
(0.01043155847201375 0 0)
(-0.0002200404044279348 0 0)
(-0.011395020556602 0 0)
(-0.02288759685684346 0 0)
(-0.03421342097092845 0 0)
(-0.04474940831886433 0 0)
(-0.05325617540051034 0 0)
(-0.05819550001569023 0 0)
(-0.05976887905551554 0 0)
(-0.0594082324435053 0 0)
(-0.05737673625087646 0 0)
(-0.05366796659058325 0 0)
(-0.04866666644377606 0 0)
(-0.04187334500584639 0 0)
(-0.03439341437682305 0 0)
(-0.02634875285022473 0 0)
(-0.01780771541264222 0 0)
(-0.008867241907310516 0 0)
(0.0004188991657612803 0 0)
(0.01005473088378364 0 0)
(0.02007461638523998 0 0)
(0.03054201496243879 0 0)
(0.04153934501568084 0 0)
(0.05313587920314679 0 0)
(0.06535175542982498 0 0)
(0.07812680680782758 0 0)
(0.09127854673976404 0 0)
(0.1043375858054036 0 0)
(0.1164540773764194 0 0)
(0.1268084077912954 0 0)
(0.1346218584840796 0 0)
(0.1383072166497867 0 0)
(0.13842743239062 0 0)
(0.1364228232744394 0 0)
(0.1323272243091264 0 0)
(0.1262841523024331 0 0)
(0.1185285716980496 0 0)
(0.1094922632478943 0 0)
(0.09906033750152375 0 0)
(0.08857311630747355 0 0)
(0.07818867087808061 0 0)
(0.06791523637393218 0 0)
(0.05779087110193105 0 0)
(0.04790301379033408 0 0)
(0.03824005133207346 0 0)
(0.02863953997762593 0 0)
(0.01886847271646808 0 0)
(0.008762369116137279 0 0)
(-0.001741887980562131 0 0)
(-0.01258013011635083 0 0)
(-0.0234584163714008 0 0)
(-0.03392485984499857 0 0)
(-0.04304268442402912 0 0)
(-0.04919024230688968 0 0)
(-0.0517486977807518 0 0)
(-0.05206299078801872 0 0)
(-0.05088710454877919 0 0)
(-0.0479340771096796 0 0)
(-0.04349834178555281 0 0)
(-0.03749691375459332 0 0)
(-0.03013807275361353 0 0)
(-0.0223035401513281 0 0)
(-0.01386624667472926 0 0)
(-0.004962189818254583 0 0)
(0.004317877707557843 0 0)
(0.01394839895157651 0 0)
(0.02393534880318248 0 0)
(0.03428939540832579 0 0)
(0.04503401746221913 0 0)
(0.05622293007695915 0 0)
(0.06791815488210783 0 0)
(0.08012318180873339 0 0)
(0.09273772755027668 0 0)
(0.1054685747950701 0 0)
(0.1176752265062762 0 0)
(0.1285385456845242 0 0)
(0.1372957055416735 0 0)
(0.1428307146502825 0 0)
(0.1443978448318719 0 0)
(0.1433370841659825 0 0)
(0.140311462361738 0 0)
(0.1351686196573587 0 0)
(0.1280430369569669 0 0)
(0.1193029884420907 0 0)
(0.1094097601160105 0 0)
(0.09824581898474831 0 0)
(0.08758081697496145 0 0)
(0.07693641733072205 0 0)
(0.06647363747362053 0 0)
(0.05630491385427916 0 0)
(0.04646683109536504 0 0)
(0.03686360024038608 0 0)
(0.02733655204481025 0 0)
(0.01773904122298647 0 0)
(0.007920775505220974 0 0)
(-0.0022367270412595 0 0)
(-0.01259442691585053 0 0)
(-0.02279051799029906 0 0)
(-0.03217544060865716 0 0)
(-0.03929819233042158 0 0)
(-0.0430168279036619 0 0)
(-0.04410221907121542 0 0)
(-0.04362151126877854 0 0)
(-0.04142269302835944 0 0)
(-0.03764008440056364 0 0)
(-0.03255341649256267 0 0)
(-0.02541398077859481 0 0)
(-0.01794570536884678 0 0)
(-0.009689222339216708 0 0)
(-0.0008544401602484952 0 0)
(0.008420985464366225 0 0)
(0.01806994028286691 0 0)
(0.02805372047556469 0 0)
(0.03834235657471885 0 0)
(0.04893446813866222 0 0)
(0.05986469337558126 0 0)
(0.071172168671829 0 0)
(0.08286358098829313 0 0)
(0.09490291752592631 0 0)
(0.1071551907557602 0 0)
(0.1191791141357598 0 0)
(0.1302435439219024 0 0)
(0.1396805589683929 0 0)
(0.1466263263493951 0 0)
(0.1497822729142154 0 0)
(0.1498929855597266 0 0)
(0.1480886857390092 0 0)
(0.1441646482567842 0 0)
(0.1380903443998136 0 0)
(0.1300438340612618 0 0)
(0.1204670988394566 0 0)
(0.1094458724264381 0 0)
(0.09832640343761416 0 0)
(0.08725885662512563 0 0)
(0.07629454695032049 0 0)
(0.06562806436377037 0 0)
(0.0554424351511744 0 0)
(0.04576435243473689 0 0)
(0.0364695975161591 0 0)
(0.02733400319101734 0 0)
(0.01810729019176156 0 0)
(0.008601889274665332 0 0)
(-0.001145768044306337 0 0)
(-0.01091114713476214 0 0)
(-0.02028604437586884 0 0)
(-0.02809483459762184 0 0)
(-0.03295744340150382 0 0)
(-0.0348917778130073 0 0)
(-0.03504206412268262 0 0)
(-0.03366346698841492 0 0)
(-0.03061499529047046 0 0)
(-0.02618775008625029 0 0)
(-0.01972345497285432 0 0)
(-0.01255754140769487 0 0)
(-0.004617377758044514 0 0)
(0.00401875819183621 0 0)
(0.01320489223994705 0 0)
(0.02282435339888726 0 0)
(0.03281319693254089 0 0)
(0.04312623367246017 0 0)
(0.05371819935771914 0 0)
(0.06454802790880063 0 0)
(0.07560160400716295 0 0)
(0.08689854391859481 0 0)
(0.09844633451275937 0 0)
(0.1101812130175654 0 0)
(0.121831777314752 0 0)
(0.1328352311225029 0 0)
(0.1425988227666952 0 0)
(0.1503934320937426 0 0)
(0.1551305370008375 0 0)
(0.1565380789044214 0 0)
(0.1557983649005412 0 0)
(0.1532033089461659 0 0)
(0.1484216248451129 0 0)
(0.1414363079606661 0 0)
(0.1325118799522454 0 0)
(0.1221454246523499 0 0)
(0.1106275730899423 0 0)
(0.09921613067242394 0 0)
(0.08771222767931501 0 0)
(0.07646428732203636 0 0)
(0.0657990727868054 0 0)
(0.05584936840486124 0 0)
(0.04652475706704757 0 0)
(0.03758217228251393 0 0)
(0.02875473562581641 0 0)
(0.01982025793130852 0 0)
(0.01067049405667218 0 0)
(0.001355002756390804 0 0)
(-0.007923197051770603 0 0)
(-0.01630587677381793 0 0)
(-0.02228433662975854 0 0)
(-0.0252951843869714 0 0)
(-0.02615813219540186 0 0)
(-0.02557449147739931 0 0)
(-0.02334822329079857 0 0)
(-0.01954153977853902 0 0)
(-0.01395259106078579 0 0)
(-0.007019420745973515 0 0)
(0.0005621220354589239 0 0)
(0.008904145136060011 0 0)
(0.01787912011474999 0 0)
(0.02737070724742757 0 0)
(0.03731001285189899 0 0)
(0.047631554251002 0 0)
(0.05824370442937272 0 0)
(0.06906212826456667 0 0)
(0.08004732000861173 0 0)
(0.09118438458180518 0 0)
(0.1024339402215897 0 0)
(0.1137383316343015 0 0)
(0.1249674367608616 0 0)
(0.135709363664606 0 0)
(0.1454333566793269 0 0)
(0.1536469758651486 0 0)
(0.1594044479936309 0 0)
(0.1619751746224231 0 0)
(0.1622768496608353 0 0)
(0.1610203680373147 0 0)
(0.1578177704490893 0 0)
(0.1524208851433841 0 0)
(0.1447806619231136 0 0)
(0.1352944964866925 0 0)
(0.1242748163026876 0 0)
(0.1127117698420427 0 0)
(0.1006714613436298 0 0)
(0.08864089093856203 0 0)
(0.07715960443702223 0 0)
(0.06654667751646026 0 0)
(0.05687077485735077 0 0)
(0.04800274521113713 0 0)
(0.03969380794569514 0 0)
(0.03159634576440679 0 0)
(0.02334793221503717 0 0)
(0.01476339609671983 0 0)
(0.005864335916426225 0 0)
(-0.002741910048725674 0 0)
(-0.009626938539117294 0 0)
(-0.01379901389943799 0 0)
(-0.0154976375432852 0 0)
(-0.01557801641194508 0 0)
(-0.0140651392964767 0 0)
(-0.01087787923376656 0 0)
(-0.006280233220228144 0 0)
(0.0004828943441226457 0 0)
(0.007599568633677317 0 0)
(0.0155910999369849 0 0)
(0.02428058726247098 0 0)
(0.03355650219789851 0 0)
(0.04334050924688083 0 0)
(0.05356282953721202 0 0)
(0.06414399765278336 0 0)
(0.07499689744511015 0 0)
(0.08602661892503666 0 0)
(0.09713998157344246 0 0)
(0.1082680737062489 0 0)
(0.1193581635353411 0 0)
(0.130317916388638 0 0)
(0.1408415415099276 0 0)
(0.1504518399135189 0 0)
(0.1588031817225418 0 0)
(0.1651679268230551 0 0)
(0.1686245976242566 0 0)
(0.1696141083952038 0 0)
(0.1690960214674168 0 0)
(0.167027829514511 0 0)
(0.1631312709585062 0 0)
(0.1571002029082482 0 0)
(0.1489962913468753 0 0)
(0.1393191499721308 0 0)
(0.1284021402270313 0 0)
(0.1162980408571923 0 0)
(0.1035435942997746 0 0)
(0.09082250574967107 0 0)
(0.07880409821601554 0 0)
(0.06801631365359644 0 0)
(0.0587204279273703 0 0)
(0.05078755161391974 0 0)
(0.04366090079990775 0 0)
(0.03654516680391869 0 0)
(0.02881688902730586 0 0)
(0.02023965090646406 0 0)
(0.01132685344131132 0 0)
(0.003447697173891846 0 0)
(-0.002158619301745497 0 0)
(-0.005078078818794942 0 0)
(-0.005825297735379278 0 0)
(-0.004979971167956311 0 0)
(-0.002479753327167041 0 0)
(0.001546318919522522 0 0)
(0.007651752068471154 0 0)
(0.01455961777363652 0 0)
(0.02226152795548125 0 0)
(0.03067079923123091 0 0)
(0.03967300669136208 0 0)
(0.04917359934122337 0 0)
(0.05913692648848079 0 0)
(0.06953398516897967 0 0)
(0.08030951851388503 0 0)
(0.09136905750802918 0 0)
(0.1025972119047983 0 0)
(0.113761352166066 0 0)
(0.125030679908939 0 0)
(0.1348487894977211 0 0)
(0.1505151073877941 0 0)
)
;

boundaryField
{
    inlet
    {
        type            zeroGradient;
    }
    outlet
    {
        type            pressureInletOutletVelocity;
        value           uniform (0.1505151073877941 0 0);
    }
    frontAndBack
    {
        type            empty;
    }
}


// ************************************************************************* //
