/*--------------------------------*- C++ -*----------------------------------*\
| =========                 |                                                 |
| \\      /  F ield         | OpenFOAM: The Open Source CFD Toolbox           |
|  \\    /   O peration     | Version:  v2012                                 |
|   \\  /    A nd           | Website:  www.openfoam.com                      |
|    \\/     M anipulation  |                                                 |
\*---------------------------------------------------------------------------*/
FoamFile
{
    version     2.0;
    format      ascii;
    class       volVectorField;
    location    "0.013";
    object      UMean;
}
// * * * * * * * * * * * * * * * * * * * * * * * * * * * * * * * * * * * * * //

dimensions      [0 1 -1 0 0 0 0];


internalField   nonuniform List<vector> 
1000
(
(-2.693200818877938e-05 0 0)
(9.063229318657307e-07 0 0)
(1.715047698845257e-05 0 0)
(4.835363689603564e-05 0 0)
(8.4997040970423e-05 0 0)
(0.0001230562231081845 0 0)
(0.0001725119056089579 0 0)
(0.0002247976707433186 0 0)
(0.0002863523087259762 0 0)
(0.0003508463398133882 0 0)
(0.0004179370208115155 0 0)
(0.0004845519297907679 0 0)
(0.0005507667807389817 0 0)
(0.0006161057921654226 0 0)
(0.0006795331672798829 0 0)
(0.00073986470755129 0 0)
(0.0007955031876331454 0 0)
(0.0008455320009762083 0 0)
(0.000888821894682128 0 0)
(0.0009248342011576918 0 0)
(0.0009528424123555558 0 0)
(0.000972359208447505 0 0)
(0.0009830510438577213 0 0)
(0.0009846264331639398 0 0)
(0.0009771548310784266 0 0)
(0.0009606348613500815 0 0)
(0.0009355452768335282 0 0)
(0.0009021899994300078 0 0)
(0.0008612280174436763 0 0)
(0.0008130141201486122 0 0)
(0.0007582048774590476 0 0)
(0.0006976437977454112 0 0)
(0.0006335316449070894 0 0)
(0.0005682594621383683 0 0)
(0.0005030193800157426 0 0)
(0.0004379534955516355 0 0)
(0.0003735512272401721 0 0)
(0.0003105307341074086 0 0)
(0.0002500078850083057 0 0)
(0.0001932477102684937 0 0)
(0.0001416362435481015 0 0)
(9.635403884286545e-05 0 0)
(5.844657037039602e-05 0 0)
(2.859636482444741e-05 0 0)
(7.35291168482108e-06 0 0)
(-5.001471388881051e-06 0 0)
(-8.251834964644642e-06 0 0)
(-2.39959293565881e-06 0 0)
(1.248386390244674e-05 0 0)
(3.611124168213749e-05 0 0)
(6.81747596075204e-05 0 0)
(0.0001082735262144911 0 0)
(0.0001560768469153966 0 0)
(0.0002109705757210208 0 0)
(0.0002716054055360016 0 0)
(0.0003353571305210214 0 0)
(0.0003998708695872655 0 0)
(0.0004643405095044875 0 0)
(0.0005286495804407658 0 0)
(0.00059235595000785 0 0)
(0.0006548974568800215 0 0)
(0.0007152535444794051 0 0)
(0.0007723649665760144 0 0)
(0.0008248408727693865 0 0)
(0.0008714775950924033 0 0)
(0.0009110393158653762 0 0)
(0.0009426937490521481 0 0)
(0.0009657127493847693 0 0)
(0.0009798084450548278 0 0)
(0.0009847330257554596 0 0)
(0.0009805951143695075 0 0)
(0.0009674141380218448 0 0)
(0.0009455081180955907 0 0)
(0.0009150120880273432 0 0)
(0.0008762727182640225 0 0)
(0.0008294507278199414 0 0)
(0.0007752896577423513 0 0)
(0.0007152376121241068 0 0)
(0.0006521817508433676 0 0)
(0.0005883647420093062 0 0)
(0.0005246162570145727 0 0)
(0.0004609871527530708 0 0)
(0.0003978617644924225 0 0)
(0.0003357283697345023 0 0)
(0.0002754441976977515 0 0)
(0.0002179865191210588 0 0)
(0.0001646234394360836 0 0)
(0.0001165664941097101 0 0)
(7.511948852104306e-05 0 0)
(4.130026775900189e-05 0 0)
(1.599966303944851e-05 0 0)
(-2.854208532683773e-07 0 0)
(-7.220581404890402e-06 0 0)
(-4.837559902509439e-06 0 0)
(6.830608484495254e-06 0 0)
(2.750062371460484e-05 0 0)
(5.703847970193003e-05 0 0)
(9.516395188384242e-05 0 0)
(0.0001416637343092194 0 0)
(0.0001957423786625108 0 0)
(0.0002556276332206965 0 0)
(0.0003182997568696238 0 0)
(0.0003815756477742692 0 0)
(0.0004447816661202423 0 0)
(0.0005079038116784465 0 0)
(0.0005704974403517746 0 0)
(0.0006322308203578283 0 0)
(0.000692201239260086 0 0)
(0.0007496314955779493 0 0)
(0.0008032349944053094 0 0)
(0.0008519607243145196 0 0)
(0.0008944186598783076 0 0)
(0.0009296589871024833 0 0)
(0.0009565950138910803 0 0)
(0.0009747523959063208 0 0)
(0.0009835696002577358 0 0)
(0.0009831076483830486 0 0)
(0.0009732516106265645 0 0)
(0.000954353730251899 0 0)
(0.0009264287716580786 0 0)
(0.000889840452960541 0 0)
(0.0008446833647294974 0 0)
(0.0007918357122110051 0 0)
(0.0007328880368468359 0 0)
(0.0006709496957605564 0 0)
(0.0006082261903813158 0 0)
(0.0005455989341223907 0 0)
(0.000483023893618863 0 0)
(0.0004208747316633308 0 0)
(0.0003594711721783781 0 0)
(0.0002995637622692743 0 0)
(0.0002418989547824483 0 0)
(0.0001876220142690967 0 0)
(0.0001377992638498295 0 0)
(9.375965719747016e-05 0 0)
(5.657513661055316e-05 0 0)
(2.740928450012067e-05 0 0)
(6.961783544510017e-06 0 0)
(-4.114534847915087e-06 0 0)
(-5.647175004351043e-06 0 0)
(2.489311304990955e-06 0 0)
(2.006233374351494e-05 0 0)
(4.705774958234697e-05 0 0)
(8.306646671425507e-05 0 0)
(0.0001279549000056412 0 0)
(0.0001807337869338182 0 0)
(0.0002394339060967972 0 0)
(0.0003009436540080592 0 0)
(0.000363210942174945 0 0)
(0.0004254540431206708 0 0)
(0.0004877233757909521 0 0)
(0.0005496113371572345 0 0)
(0.0006108793257223367 0 0)
(0.0006706593398847183 0 0)
(0.0007283476260266577 0 0)
(0.000782744732104335 0 0)
(0.0008328344066565335 0 0)
(0.0008772734848663288 0 0)
(0.0009151615616510476 0 0)
(0.0009451496962973895 0 0)
(0.0009666753155515933 0 0)
(0.0009790643074218857 0 0)
(0.0009822194887053729 0 0)
(0.0009757949980830028 0 0)
(0.0009600931962410106 0 0)
(0.0009351832129158953 0 0)
(0.0009013773757473798 0 0)
(0.000858714571329563 0 0)
(0.0008082142313810334 0 0)
(0.0007516441938918877 0 0)
(0.000692079242392424 0 0)
(0.0006312539767572702 0 0)
(0.0005702380233213323 0 0)
(0.0005088223641257349 0 0)
(0.0004475720618191189 0 0)
(0.0003864537235439796 0 0)
(0.0003262589375062166 0 0)
(0.0002670669323073349 0 0)
(0.0002105463282546716 0 0)
(0.000157422277690878 0 0)
(0.0001090387574567038 0 0)
(6.664486096924077e-05 0 0)
(3.152369253517908e-05 0 0)
(4.863369983694176e-06 0 0)
(-1.246084984728541e-05 0 0)
(-1.970276675480803e-05 0 0)
(-1.649467849009388e-05 0 0)
(-2.705526351991304e-06 0 0)
(2.193391844941966e-05 0 0)
(5.768949209910498e-05 0 0)
(0.0001038799796216388 0 0)
(0.0001599010901022264 0 0)
(0.0002233261681544672 0 0)
(0.0002912399442217352 0 0)
(0.0003621926752861177 0 0)
(0.0004352082274622837 0 0)
(0.0005099201596281331 0 0)
(0.0005859089118577871 0 0)
(0.0006625980301008793 0 0)
(0.0007392709675566224 0 0)
(0.0008146753739855508 0 0)
(0.0008883961386928841 0 0)
(0.0009592154203295593 0 0)
(0.001025439739809922 0 0)
(0.001085975028158402 0 0)
(0.001138979619412607 0 0)
(0.001183855398404009 0 0)
(0.001218851528087489 0 0)
(0.001243692483288782 0 0)
(0.001257072604725821 0 0)
(0.001259453156760584 0 0)
(0.001249185021043912 0 0)
(0.001227354200389888 0 0)
(0.001193316577242136 0 0)
(0.001148218906286081 0 0)
(0.00109419273774326 0 0)
(0.001033891662556662 0 0)
(0.0009684823468250378 0 0)
(0.0008989749888285273 0 0)
(0.0008262090401658326 0 0)
(0.0007511779467769204 0 0)
(0.0006741802984532434 0 0)
(0.0005963880946089558 0 0)
(0.0005186583965311734 0 0)
(0.000441898772580989 0 0)
(0.0003674849042968713 0 0)
(0.000296727456235027 0 0)
(0.000231334079444075 0 0)
(0.000172774350550766 0 0)
(0.0001231512906744733 0 0)
(8.345256240806771e-05 0 0)
(5.485152827339333e-05 0 0)
(3.835105030753349e-05 0 0)
(3.368172672383011e-05 0 0)
(4.212322266097514e-05 0 0)
(6.408673412842035e-05 0 0)
(9.798687702202943e-05 0 0)
(0.0001430636528160832 0 0)
(0.000196952174916531 0 0)
(0.0002570517871854019 0 0)
(0.0003224323500536074 0 0)
(0.0003912654207257894 0 0)
(0.0004629570320543272 0 0)
(0.0005364836232653867 0 0)
(0.0006114206990861238 0 0)
(0.0006872568758016255 0 0)
(0.0007599951300993874 0 0)
(0.0008332987934724153 0 0)
(0.0009042457648999923 0 0)
(0.0009718052672320132 0 0)
(0.001034679615228994 0 0)
(0.001091085812286067 0 0)
(0.001140215240901098 0 0)
(0.001180212312872941 0 0)
(0.001210370930878319 0 0)
(0.001229738979695378 0 0)
(0.001237162286627431 0 0)
(0.001232800526380601 0 0)
(0.001216428153068068 0 0)
(0.001188092691745113 0 0)
(0.001148347757311235 0 0)
(0.001099035393571276 0 0)
(0.00104261952926484 0 0)
(0.0009808742887229931 0 0)
(0.0009143106751670211 0 0)
(0.0008440699235254825 0 0)
(0.0007712558619098404 0 0)
(0.0006962976966357045 0 0)
(0.0006212243531017227 0 0)
(0.0005433135271320096 0 0)
(0.0004685507332461718 0 0)
(0.0003950788921096476 0 0)
(0.0003250473100889448 0 0)
(0.0002592642088380355 0 0)
(0.000199633471084337 0 0)
(0.0001476531390151258 0 0)
(0.0001051451847654942 0 0)
(7.302336464551879e-05 0 0)
(5.293688735293738e-05 0 0)
(4.474637854421004e-05 0 0)
(4.942619457526626e-05 0 0)
(6.797553310754858e-05 0 0)
(9.945543162636149e-05 0 0)
(0.0001418708131122463 0 0)
(0.0001940550627187234 0 0)
(0.0002530226050770607 0 0)
(0.0003178023599738717 0 0)
(0.0003866165132392104 0 0)
(0.0004586622735659547 0 0)
(0.0005330023644166998 0 0)
(0.0006086610103777589 0 0)
(0.0006862938905371106 0 0)
(0.0007582899788643438 0 0)
(0.000832732016184794 0 0)
(0.0009048106169983115 0 0)
(0.0009741794462442487 0 0)
(0.00103938899882958 0 0)
(0.001099028146593718 0 0)
(0.001151838655236561 0 0)
(0.001196574850319095 0 0)
(0.00123184424013641 0 0)
(0.001256651062942218 0 0)
(0.001270070412197201 0 0)
(0.00127076794016161 0 0)
(0.001260087834204566 0 0)
(0.001237760213112555 0 0)
(0.001203266508372851 0 0)
(0.001158638173522543 0 0)
(0.001106134309653032 0 0)
(0.001047729582980379 0 0)
(0.000984424629317149 0 0)
(0.0009168938621501411 0 0)
(0.0008464798476385068 0 0)
(0.0007736104671445689 0 0)
(0.0007004468963731087 0 0)
(0.0006243106890215842 0 0)
(0.0005496469792696076 0 0)
(0.0004774341349774647 0 0)
(0.000408007279199749 0 0)
(0.0003423993001650785 0 0)
(0.0002822848505590061 0 0)
(0.0002286017075569066 0 0)
(0.0001839078517993964 0 0)
(0.0001489167232751666 0 0)
(0.0001251876197647124 0 0)
(0.0001141200749626162 0 0)
(0.0001139132508188569 0 0)
(0.0001290187795603418 0 0)
(0.0001579463577707015 0 0)
(0.0001976228233926276 0 0)
(0.0002479052105125442 0 0)
(0.0003058593748526604 0 0)
(0.0003698318981259416 0 0)
(0.0004386360789558479 0 0)
(0.0005110306323077523 0 0)
(0.0005859190630276627 0 0)
(0.0006627391480144885 0 0)
(0.0007405771983436193 0 0)
(0.0008168473386370562 0 0)
(0.0008892687898579637 0 0)
(0.0009635379048174611 0 0)
(0.001034494977803204 0 0)
(0.001102173914270304 0 0)
(0.001164816361412009 0 0)
(0.001221065959172429 0 0)
(0.001270082301741726 0 0)
(0.001310348504410775 0 0)
(0.001340287867018982 0 0)
(0.001360253191507582 0 0)
(0.001365596112212079 0 0)
(0.001361173730533203 0 0)
(0.001345155471337641 0 0)
(0.001316453421465517 0 0)
(0.001276960609665241 0 0)
(0.001228777167214629 0 0)
(0.001173959088222763 0 0)
(0.001114278237001636 0 0)
(0.001049824539346057 0 0)
(0.0009820332468756996 0 0)
(0.0009118423785196499 0 0)
(0.0008402038918412021 0 0)
(0.0007684941955288803 0 0)
(0.0006915087917068375 0 0)
(0.0006213377175443153 0 0)
(0.0005524019509901684 0 0)
(0.0004873618313394731 0 0)
(0.0004270405545239085 0 0)
(0.0003726327635304243 0 0)
(0.0003261966257962957 0 0)
(0.0002890509251247679 0 0)
(0.0002622896857667244 0 0)
(0.0002483249414329057 0 0)
(0.0002441339102441814 0 0)
(0.0002553205869004364 0 0)
(0.0002810545207924931 0 0)
(0.0003181532758007671 0 0)
(0.0003662736868773858 0 0)
(0.0004230857077255029 0 0)
(0.0004862885975137093 0 0)
(0.0005550278340108191 0 0)
(0.0006277345342918826 0 0)
(0.0007032177724190505 0 0)
(0.0007813375788388558 0 0)
(0.0008598550992756764 0 0)
(0.0009412982126145696 0 0)
(0.001010719291956709 0 0)
(0.00108794488376839 0 0)
(0.0011605607518352 0 0)
(0.001230887841155913 0 0)
(0.001296453430483786 0 0)
(0.00135642259807873 0 0)
(0.001409262898105785 0 0)
(0.001454330969548865 0 0)
(0.001489562290407675 0 0)
(0.001515187380319969 0 0)
(0.001527066112367036 0 0)
(0.001528328612042364 0 0)
(0.001518239537934293 0 0)
(0.001496028797666124 0 0)
(0.001462142718366826 0 0)
(0.001418746888606246 0 0)
(0.001367928047813138 0 0)
(0.001311736942745527 0 0)
(0.001250797254129225 0 0)
(0.00118597149129081 0 0)
(0.001118754509223142 0 0)
(0.001048913256895282 0 0)
(0.000982286711286611 0 0)
(0.0009030297095701694 0 0)
(0.0008347374594796589 0 0)
(0.000766370926267199 0 0)
(0.0007019402764307282 0 0)
(0.0006417453002449971 0 0)
(0.0005871837478136868 0 0)
(0.0005394043430606924 0 0)
(0.0005005774485872751 0 0)
(0.0004715716097129478 0 0)
(0.0004542584076419817 0 0)
(0.0004480351786361037 0 0)
(0.000454376945013269 0 0)
(0.0004762640741006079 0 0)
(0.000511119528784337 0 0)
(0.0005569021645486883 0 0)
(0.000612350795673847 0 0)
(0.0006749418280843394 0 0)
(0.0007431642406876299 0 0)
(0.0008163467045912942 0 0)
(0.0008925896390909311 0 0)
(0.0009718113799757298 0 0)
(0.001051863263532472 0 0)
(0.001136187209135409 0 0)
(0.001207250290998865 0 0)
(0.001284709722095135 0 0)
(0.001359985965499582 0 0)
(0.001432817287756648 0 0)
(0.001501560450308063 0 0)
(0.001565223156676416 0 0)
(0.001621994894231409 0 0)
(0.00167160779292308 0 0)
(0.001712224573265005 0 0)
(0.001743014535220157 0 0)
(0.001762407238161728 0 0)
(0.001768234697492012 0 0)
(0.001764410874456416 0 0)
(0.001749428370209202 0 0)
(0.00172162038932551 0 0)
(0.001683598356514818 0 0)
(0.001637283311422108 0 0)
(0.001584803700768413 0 0)
(0.001527700733437385 0 0)
(0.001466245579275014 0 0)
(0.001401732871170183 0 0)
(0.001335048715978174 0 0)
(0.001268829379852918 0 0)
(0.001196808794960923 0 0)
(0.001124167402161608 0 0)
(0.001058247853193222 0 0)
(0.0009939901313686674 0 0)
(0.0009342418376885743 0 0)
(0.0008795376719518991 0 0)
(0.0008311419384503565 0 0)
(0.0007906343930335309 0 0)
(0.0007599763533035547 0 0)
(0.0007394805550024698 0 0)
(0.0007319761444490653 0 0)
(0.0007325044382485667 0 0)
(0.0007507568111356735 0 0)
(0.000783852456165877 0 0)
(0.0008268832832889102 0 0)
(0.0008807027377711852 0 0)
(0.0009425252791384047 0 0)
(0.001010298637100734 0 0)
(0.001083598795816984 0 0)
(0.001160637062482701 0 0)
(0.001240650542081759 0 0)
(0.001322846454823017 0 0)
(0.00140619953962908 0 0)
(0.001488176943390027 0 0)
(0.001559163347141616 0 0)
(0.001638993419630245 0 0)
(0.001713633565512055 0 0)
(0.001785689357779908 0 0)
(0.00185279189496536 0 0)
(0.001913906763309011 0 0)
(0.001967611808111652 0 0)
(0.002013531924254481 0 0)
(0.002049297861978228 0 0)
(0.002076008818073326 0 0)
(0.002086548188457419 0 0)
(0.002088913769278357 0 0)
(0.00208127374621054 0 0)
(0.002059688218278335 0 0)
(0.002027653711412485 0 0)
(0.001986214165450998 0 0)
(0.001938002925286965 0 0)
(0.001884481773694404 0 0)
(0.001826772436366484 0 0)
(0.001765382109885148 0 0)
(0.001701919849915281 0 0)
(0.001636670076722659 0 0)
(0.001573569889643404 0 0)
(0.001495113423060966 0 0)
(0.001432132736925237 0 0)
(0.001367972762510583 0 0)
(0.001308811040949417 0 0)
(0.001254083687747624 0 0)
(0.001205565153462147 0 0)
(0.00116388160784181 0 0)
(0.001131713237560078 0 0)
(0.001108976752052133 0 0)
(0.00109927090998027 0 0)
(0.001097415074237615 0 0)
(0.0011111927218378 0 0)
(0.001140890277549767 0 0)
(0.001181652665969228 0 0)
(0.001233571974952176 0 0)
(0.001294409584907428 0 0)
(0.001361929104942106 0 0)
(0.001434865886790667 0 0)
(0.001512768002478628 0 0)
(0.00159380126950841 0 0)
(0.001677726410184335 0 0)
(0.001761989026849104 0 0)
(0.001852197962851812 0 0)
(0.001919386332788227 0 0)
(0.002002275450334318 0 0)
(0.002079467463624059 0 0)
(0.002154662190109173 0 0)
(0.002225341854522047 0 0)
(0.002290615620465299 0 0)
(0.002348863695572986 0 0)
(0.002399518079915912 0 0)
(0.002440962466053785 0 0)
(0.00247317909860138 0 0)
(0.00249157006905904 0 0)
(0.002499091783406852 0 0)
(0.002497037156568129 0 0)
(0.002483234882811354 0 0)
(0.002457318394127904 0 0)
(0.002421499243794973 0 0)
(0.002377959407207354 0 0)
(0.002328327894487529 0 0)
(0.002274608411680461 0 0)
(0.002216829748201444 0 0)
(0.002156674527392802 0 0)
(0.002093936560138658 0 0)
(0.002035860481803841 0 0)
(0.001958645062257442 0 0)
(0.001894373228351335 0 0)
(0.001832062053886535 0 0)
(0.001773172689567172 0 0)
(0.001718827879145924 0 0)
(0.001670176253497146 0 0)
(0.001628141811791608 0 0)
(0.001594331840672556 0 0)
(0.001570360437650393 0 0)
(0.001557415587734485 0 0)
(0.001555287986711286 0 0)
(0.00156370083711672 0 0)
(0.001589163850217006 0 0)
(0.001629045464851007 0 0)
(0.001678351359952744 0 0)
(0.001738236331385797 0 0)
(0.001805307241607021 0 0)
(0.001878184975100583 0 0)
(0.001956321304980468 0 0)
(0.002038559802456267 0 0)
(0.002123795574905377 0 0)
(0.002210708468659563 0 0)
(0.002300821628801062 0 0)
(0.002379540389093018 0 0)
(0.00245586161445702 0 0)
(0.00253820896014939 0 0)
(0.002615690857628554 0 0)
(0.002690151608376586 0 0)
(0.002759398605827124 0 0)
(0.002822552044499679 0 0)
(0.002877683507490358 0 0)
(0.002925019110468059 0 0)
(0.002961915924052375 0 0)
(0.002989214725652794 0 0)
(0.002999779849038574 0 0)
(0.003003920270090561 0 0)
(0.002998977379698214 0 0)
(0.002979180642908844 0 0)
(0.002949732749718438 0 0)
(0.00291132576412333 0 0)
(0.002866364771721757 0 0)
(0.002816314129230675 0 0)
(0.002762605662174489 0 0)
(0.002705901780677106 0 0)
(0.002647032027046573 0 0)
(0.002587848345382168 0 0)
(0.002525913762736262 0 0)
(0.002451222003536764 0 0)
(0.00239335776442327 0 0)
(0.002334334304906329 0 0)
(0.002280659013828833 0 0)
(0.002232022851031398 0 0)
(0.002190004772596948 0 0)
(0.002155215413617313 0 0)
(0.002130352300550608 0 0)
(0.002114693869396726 0 0)
(0.002112703125473634 0 0)
(0.002115987961090677 0 0)
(0.00213784328666442 0 0)
(0.002176747682317369 0 0)
(0.002223768405533286 0 0)
(0.002282385317419791 0 0)
(0.002349160724396561 0 0)
(0.002422274287525322 0 0)
(0.002500524348605752 0 0)
(0.002583859932623996 0 0)
(0.002670761035781482 0 0)
(0.002760282314181054 0 0)
(0.0028497956577923 0 0)
(0.002943768911522805 0 0)
(0.003010767264341218 0 0)
(0.003098937921834647 0 0)
(0.00317892692901957 0 0)
(0.003257125178366456 0 0)
(0.003330537636189654 0 0)
(0.003398433651383163 0 0)
(0.003458963898252758 0 0)
(0.003511786860700647 0 0)
(0.00355437541364591 0 0)
(0.003588763593248066 0 0)
(0.003606323233007829 0 0)
(0.003615986158861208 0 0)
(0.003617616204720571 0 0)
(0.003605478003490004 0 0)
(0.003582294839166976 0 0)
(0.003549906504113532 0 0)
(0.003510034506817961 0 0)
(0.003464362819478956 0 0)
(0.003414676837894847 0 0)
(0.003362123285618168 0 0)
(0.003307415788948389 0 0)
(0.003250028099643569 0 0)
(0.003199312056466472 0 0)
(0.003118936075949291 0 0)
(0.003063610243745053 0 0)
(0.003005802287428882 0 0)
(0.002952873039664514 0 0)
(0.00290467527103147 0 0)
(0.002862857483455529 0 0)
(0.002828289770783426 0 0)
(0.002802261657520221 0 0)
(0.002785857079666755 0 0)
(0.002781375121054959 0 0)
(0.002785201320347212 0 0)
(0.00280234142281468 0 0)
(0.002836990053564526 0 0)
(0.002884240510713384 0 0)
(0.002940818679804919 0 0)
(0.003007426539272104 0 0)
(0.003080746696696793 0 0)
(0.003159537309060236 0 0)
(0.003243292295757259 0 0)
(0.003331884701944108 0 0)
(0.003423784075260063 0 0)
(0.00351580038207959 0 0)
(0.003614879293403449 0 0)
(0.003686955020096581 0 0)
(0.00377264464503572 0 0)
(0.003857568705200505 0 0)
(0.003939187787519945 0 0)
(0.004016635039739935 0 0)
(0.00408923758009906 0 0)
(0.004155282943535489 0 0)
(0.004213441568779921 0 0)
(0.004262793628195063 0 0)
(0.004302130914454885 0 0)
(0.004329364785774663 0 0)
(0.004343118853701426 0 0)
(0.004349767569785155 0 0)
(0.004347389888452543 0 0)
(0.004330390313953194 0 0)
(0.004304515669431631 0 0)
(0.00427024819945076 0 0)
(0.004229685447987796 0 0)
(0.004183973914494855 0 0)
(0.004135764363299555 0 0)
(0.004085258433025722 0 0)
(0.004032404297276006 0 0)
(0.003981142794508716 0 0)
(0.003917742065936648 0 0)
(0.003851021815489984 0 0)
(0.003798435857140181 0 0)
(0.003745808291889036 0 0)
(0.00369827837238707 0 0)
(0.003656702379486561 0 0)
(0.003622319317903523 0 0)
(0.003595922590509202 0 0)
(0.00357925487039927 0 0)
(0.003571877431631291 0 0)
(0.003577957078933379 0 0)
(0.00358790360654942 0 0)
(0.003619190737011691 0 0)
(0.003668444688257476 0 0)
(0.003723074530881646 0 0)
(0.003789243318852679 0 0)
(0.003863170160223688 0 0)
(0.003942919089019971 0 0)
(0.004027521936250529 0 0)
(0.004117302839475818 0 0)
(0.004211612181778333 0 0)
(0.004307618118546756 0 0)
(0.004404121723031595 0 0)
(0.004499607020042593 0 0)
(0.004570046642279007 0 0)
(0.004663632306002617 0 0)
(0.00474790628534147 0 0)
(0.004829910832555677 0 0)
(0.00490705842469986 0 0)
(0.004978603467757493 0 0)
(0.005043102272112626 0 0)
(0.005099157728124915 0 0)
(0.005144138494941446 0 0)
(0.005181108024264318 0 0)
(0.005198477444891777 0 0)
(0.0052114555652976 0 0)
(0.005218613243045653 0 0)
(0.00520853938185692 0 0)
(0.005189379708261952 0 0)
(0.005161477956059726 0 0)
(0.005126641083201124 0 0)
(0.005086139019167019 0 0)
(0.005041830858340902 0 0)
(0.004996484579361694 0 0)
(0.004948967529609238 0 0)
(0.004898225711214442 0 0)
(0.004854811799707024 0 0)
(0.00477411055175303 0 0)
(0.004729014526627457 0 0)
(0.004677040025533352 0 0)
(0.004631352078621169 0 0)
(0.004590140179002315 0 0)
(0.004556435410010945 0 0)
(0.004530857825401439 0 0)
(0.004514332883576261 0 0)
(0.004506695874453362 0 0)
(0.004512007685536471 0 0)
(0.004522420307128144 0 0)
(0.004550074497642531 0 0)
(0.004596529658785765 0 0)
(0.004652021632062356 0 0)
(0.004717363033664028 0 0)
(0.004791970799653666 0 0)
(0.004873169387961916 0 0)
(0.004959480822782423 0 0)
(0.005050023404077079 0 0)
(0.005147071812064488 0 0)
(0.005247109015781778 0 0)
(0.005345433385810461 0 0)
(0.00545500966134663 0 0)
(0.005519575493742658 0 0)
(0.005617763895563663 0 0)
(0.005706710986150505 0 0)
(0.00579372523133572 0 0)
(0.005875471926882079 0 0)
(0.005952586060315435 0 0)
(0.006023435711931432 0 0)
(0.006086705359227382 0 0)
(0.006139451074307765 0 0)
(0.00618243101304458 0 0)
(0.00621060536208212 0 0)
(0.006228638049290766 0 0)
(0.006240119064250559 0 0)
(0.006241353777639216 0 0)
(0.006228603384885165 0 0)
(0.006207512720636922 0 0)
(0.006179072351128085 0 0)
(0.006144576831929031 0 0)
(0.006104712689797759 0 0)
(0.006064233959400442 0 0)
(0.006022320762132943 0 0)
(0.005976915750802148 0 0)
(0.005936691119561814 0 0)
(0.005869784165591079 0 0)
(0.00581601324875353 0 0)
(0.005770136651100928 0 0)
(0.005725739922500731 0 0)
(0.005685816068421543 0 0)
(0.00565260264118281 0 0)
(0.005627557774260565 0 0)
(0.005612094918979404 0 0)
(0.005605232511891129 0 0)
(0.005608264953434773 0 0)
(0.005622808500638479 0 0)
(0.005643652973948128 0 0)
(0.005686037227193026 0 0)
(0.005746215423318721 0 0)
(0.005810109731262846 0 0)
(0.005885394743244295 0 0)
(0.005967867419893888 0 0)
(0.006056247385388314 0 0)
(0.006148412669205461 0 0)
(0.006246688766734357 0 0)
(0.006350190651975449 0 0)
(0.006453843430472761 0 0)
(0.006559172858558927 0 0)
(0.006654516245680203 0 0)
(0.006732183769018702 0 0)
(0.006832365143259995 0 0)
(0.006922545460652223 0 0)
(0.007009645990468205 0 0)
(0.007091572480140777 0 0)
(0.007168251747121449 0 0)
(0.007238895584358052 0 0)
(0.007300043807260173 0 0)
(0.007348886750915258 0 0)
(0.007389860727476422 0 0)
(0.007407431802061643 0 0)
(0.007425468759177892 0 0)
(0.007440589316609465 0 0)
(0.007433746830088926 0 0)
(0.007419935136860202 0 0)
(0.007397646619619643 0 0)
(0.00736953957223176 0 0)
(0.007335590643874903 0 0)
(0.007298814619890438 0 0)
(0.007262764506550543 0 0)
(0.00722434788984057 0 0)
(0.0071822508294815 0 0)
(0.007146844673352878 0 0)
(0.007068426393426476 0 0)
(0.007035392347578225 0 0)
(0.006991910201709204 0 0)
(0.006954668284677559 0 0)
(0.006922028755679896 0 0)
(0.006897339510644643 0 0)
(0.006883081207216166 0 0)
(0.00687805263061855 0 0)
(0.006880979408536832 0 0)
(0.006897549116512759 0 0)
(0.006915482298671406 0 0)
(0.006955646974667362 0 0)
(0.007016995526312822 0 0)
(0.007081548466838138 0 0)
(0.007157250565938201 0 0)
(0.007240995365251912 0 0)
(0.007331598211760388 0 0)
(0.007426699833690541 0 0)
(0.007526090832984518 0 0)
(0.007632845167554062 0 0)
(0.007742316962523678 0 0)
(0.007847032584990381 0 0)
(0.007969982692545077 0 0)
(0.008023927570801365 0 0)
(0.008138872154946476 0 0)
(0.008232952566120749 0 0)
(0.008326595281528296 0 0)
(0.008413747291465596 0 0)
(0.008495759369602661 0 0)
(0.008573206879246365 0 0)
(0.008643288517001926 0 0)
(0.008701289451039032 0 0)
(0.008748974877187957 0 0)
(0.008779215254719409 0 0)
(0.008802512838447126 0 0)
(0.008821054847007117 0 0)
(0.008826814356864211 0 0)
(0.008819198751983025 0 0)
(0.008803842385533413 0 0)
(0.00878187531237587 0 0)
(0.008754778777204798 0 0)
(0.008722457723451557 0 0)
(0.008691956421707064 0 0)
(0.008660133953579381 0 0)
(0.008623691260332109 0 0)
(0.008596597428029467 0 0)
(0.008526473863554785 0 0)
(0.008489516248287038 0 0)
(0.008452843930724031 0 0)
(0.008418939166805176 0 0)
(0.008388439662561881 0 0)
(0.008364244501193215 0 0)
(0.008350372799259044 0 0)
(0.008347734577207279 0 0)
(0.008353499519391584 0 0)
(0.008368335981251666 0 0)
(0.008393281795903911 0 0)
(0.008426968380455301 0 0)
(0.008482204316158716 0 0)
(0.0085550857519744 0 0)
(0.008629401781392992 0 0)
(0.008714716744549293 0 0)
(0.008806674370071368 0 0)
(0.008904658226612499 0 0)
(0.009005852662556164 0 0)
(0.009115248195005811 0 0)
(0.009227857483739315 0 0)
(0.009339826453385328 0 0)
(0.009454325758459755 0 0)
(0.009549698459036535 0 0)
(0.009636015650208513 0 0)
(0.009744254221263326 0 0)
(0.009841893132322371 0 0)
(0.009935126160219855 0 0)
(0.0100221825524331 0 0)
(0.01010440926875889 0 0)
(0.01018233483912386 0 0)
(0.01025080265442153 0 0)
(0.01030459108758568 0 0)
(0.01035172570223176 0 0)
(0.01036999419305097 0 0)
(0.01039353006292381 0 0)
(0.0104194811390597 0 0)
(0.01041603553823776 0 0)
(0.01040826746099103 0 0)
(0.01039188217787926 0 0)
(0.01037081734018879 0 0)
(0.01034375229644036 0 0)
(0.01031859467133078 0 0)
(0.01029161747871187 0 0)
(0.01026403322725632 0 0)
(0.01023224555123811 0 0)
(0.01020744220441654 0 0)
(0.01013224241302021 0 0)
(0.01011527067674197 0 0)
(0.01008299802999914 0 0)
(0.01005697614793181 0 0)
(0.01003458886445018 0 0)
(0.01001977554387072 0 0)
(0.01001806971323395 0 0)
(0.01002711657785559 0 0)
(0.0100431346853974 0 0)
(0.01007365436052916 0 0)
(0.01010059791994687 0 0)
(0.01015460264321555 0 0)
(0.01023408850366309 0 0)
(0.01030936102717357 0 0)
(0.01039671024337547 0 0)
(0.01049087933237162 0 0)
(0.01059166820235771 0 0)
(0.01069563032301486 0 0)
(0.01080863022650781 0 0)
(0.01092572707616776 0 0)
(0.01104450674699828 0 0)
(0.01115627767208958 0 0)
(0.01129438305654666 0 0)
(0.01133560629682145 0 0)
(0.01147160124084331 0 0)
(0.01157228194322068 0 0)
(0.01167415207596973 0 0)
(0.01176795659179071 0 0)
(0.01185541633442945 0 0)
(0.01193956851539034 0 0)
(0.01201707684843411 0 0)
(0.01208287820812663 0 0)
(0.01213748150410273 0 0)
(0.01217255539319507 0 0)
(0.01220115312542002 0 0)
(0.01222867215914671 0 0)
(0.01224101937861728 0 0)
(0.01223948244575641 0 0)
(0.01223073283561423 0 0)
(0.01221615010630742 0 0)
(0.0121950496693297 0 0)
(0.01217375567468793 0 0)
(0.01215591314321364 0 0)
(0.01213309211981983 0 0)
(0.0121077721880136 0 0)
(0.01209418029953833 0 0)
(0.01202358866029549 0 0)
(0.01200702334181936 0 0)
(0.01198401017849507 0 0)
(0.01196315239109456 0 0)
(0.01194478030512628 0 0)
(0.01193140615344271 0 0)
(0.01192882494286912 0 0)
(0.01193829957799925 0 0)
(0.01195879443456835 0 0)
(0.01198844226125375 0 0)
(0.01203068461778324 0 0)
(0.01207412750727783 0 0)
(0.01214372007201174 0 0)
(0.01223574169824914 0 0)
(0.01231968787513993 0 0)
(0.01241671885808998 0 0)
(0.01252026755450938 0 0)
(0.01262764795216685 0 0)
(0.0127401301373032 0 0)
(0.01286531663975205 0 0)
(0.01298706083299921 0 0)
(0.01310847749034461 0 0)
(0.01323057798482043 0 0)
(0.0133309702430525 0 0)
(0.0134197827844781 0 0)
(0.01354555908885305 0 0)
(0.01365148837346736 0 0)
(0.01375173057360497 0 0)
(0.01384585839425134 0 0)
(0.01393841868918779 0 0)
(0.01402191475730652 0 0)
(0.01409206781233885 0 0)
(0.01416231454778583 0 0)
(0.01429115695953823 0 0)
(0.01426276905746621 0 0)
)
;

boundaryField
{
    inlet
    {
        type            calculated;
        value           uniform (-2.693200818877938e-05 0 0);
    }
    outlet
    {
        type            calculated;
        value           uniform (0.01426276905746621 0 0);
    }
    frontAndBack
    {
        type            empty;
    }
}


// ************************************************************************* //
