/*--------------------------------*- C++ -*----------------------------------*\
| =========                 |                                                 |
| \\      /  F ield         | OpenFOAM: The Open Source CFD Toolbox           |
|  \\    /   O peration     | Version:  v2012                                 |
|   \\  /    A nd           | Website:  www.openfoam.com                      |
|    \\/     M anipulation  |                                                 |
\*---------------------------------------------------------------------------*/
FoamFile
{
    version     2.0;
    format      ascii;
    class       volScalarField;
    location    "0.012";
    object      p;
}
// * * * * * * * * * * * * * * * * * * * * * * * * * * * * * * * * * * * * * //

dimensions      [1 -1 -2 0 0 0 0];


internalField   nonuniform List<scalar> 
1000
(
101303.7114385322
101309.3820133633
101304.6357678381
101294.5552405783
101292.1043806896
101286.5696220701
101281.927888481
101281.6576671411
101276.5180615529
101276.1965186753
101276.442720961
101276.4577893423
101277.7339765506
101279.3469428479
101281.1220903381
101286.1183691163
101289.4212541829
101294.911748482
101301.2751516546
101306.336510481
101313.1225177101
101319.5703408216
101326.1961822237
101332.995852802
101339.3317817438
101345.8962925983
101351.6982026163
101357.1314486797
101362.2259709951
101366.2719635402
101371.767067738
101372.7896765984
101372.9818254829
101372.9893403633
101372.0564053907
101371.7705329989
101370.5447657574
101367.426074774
101366.1866216974
101361.2675828192
101356.3284627681
101352.5635464977
101344.3920379728
101338.7385828349
101332.412815961
101324.4920126294
101318.7265711799
101311.962539429
101305.3339735566
101299.563766883
101293.6364671367
101288.4593057847
101283.0392950535
101277.9496196662
101277.658219383
101277.7852130299
101277.6274932331
101278.4670906761
101278.6001782963
101280.3360314989
101282.3934362322
101283.760986191
101288.4753355518
101292.1234235751
101296.7498738178
101303.4693601273
101309.1751041043
101316.1757811769
101323.356378318
101329.9613006242
101336.8851768628
101343.2651920254
101349.3723275501
101355.2569174014
101360.4971061639
101366.7224426113
101371.6394886925
101371.8766540098
101371.8740046523
101371.5067122934
101371.4380605663
101370.6619976698
101369.0461042219
101368.3862704054
101365.2772971769
101362.3024460933
101359.4519978175
101353.4960944889
101349.1719199752
101342.8670574481
101335.7529891778
101329.5005341704
101321.6318054797
101314.8082574322
101307.9405568246
101301.0972263089
101295.1265960602
101289.5455255701
101282.445883862
101278.8871349125
101278.6406488041
101278.6977011825
101279.0431829903
101279.0244708047
101279.9895282717
101281.242180246
101281.8479238314
101284.9797623537
101287.2957030551
101290.2888342418
101295.6956008443
101299.7949223575
101305.8566291808
101312.5330403627
101318.7933817149
101326.3203519216
101333.3589764833
101340.376579319
101347.3406535153
101353.7467688696
101359.5302745314
101366.5478354312
101370.9393484256
101371.0683256998
101370.9655852513
101370.9414330349
101370.5023028945
101369.9370950298
101368.9557799126
101367.6355034462
101365.6541660598
101362.636473453
101360.5179803354
101355.4676730988
101350.9381438398
101346.3627602929
101338.8338938317
101333.1181754389
101325.9554407196
101318.1452108978
101311.3934217064
101303.91447077
101297.012504646
101291.0282989146
101282.6704466195
101279.4047697201
101279.2067148911
101279.2522491212
101279.5868238034
101279.5801385241
101280.4565427646
101281.5923994542
101282.2032300102
101284.9213016969
101286.9311482135
101289.6854822154
101294.2896793893
101297.929699026
101303.52779195
101309.3947845954
101315.3745240073
101322.6567210495
101329.4456982592
101336.8838013739
101344.1237177012
101351.1504695208
101357.7452968733
101366.2622950111
101370.3128591681
101370.3345635668
101370.3127656699
101370.2547821282
101369.8362558757
101369.3980052342
101368.6348226598
101367.1522200792
101365.7756148888
101363.2624472708
101360.4730707631
101357.1673511118
101352.626944522
101348.0205264911
101342.3806982401
101336.0642053627
101329.4961593222
101322.2458802557
101314.8417305076
101307.3781353587
101299.7824664305
101292.8874986914
101283.5300870501
101279.8379993247
101279.7724481885
101279.8906675407
101279.9767335748
101280.2543019381
101281.0278553879
101281.4574493675
101282.997614625
101284.6326238677
101286.4826828671
101289.7673569099
101292.69916948
101296.8296159445
101301.6949250795
101306.70162099
101312.85028624
101319.2276689287
101326.0910335265
101333.3984301873
101340.7228369826
101348.2684284505
101355.2053741202
101364.4567497684
101369.5615478447
101369.7821462764
101369.7519594765
101369.5288058719
101369.5329721795
101368.7166570092
101368.1624356314
101367.27544532
101365.0754845619
101364.0406651282
101360.9628739729
101357.6032243675
101354.7441699024
101349.3010906899
101344.7562601593
101339.0850823342
101332.0980407763
101325.8872059728
101318.0864188482
101310.5532933686
101302.8703067414
101295.3418673997
101285.2949450294
101280.6494597998
101280.5961834884
101280.5689947042
101280.6652138618
101280.9145974119
101281.3728555298
101282.021653126
101283.1474647818
101284.6550245657
101286.4330717192
101289.1753426004
101292.0560286813
101295.6827477851
101300.148292699
101304.791295812
101310.4631097976
101316.4215484028
101323.0020415958
101330.0470689137
101337.3486070881
101345.1456352705
101352.4139567701
101361.3756117792
101368.9221541161
101369.3210010794
101369.4170185464
101369.3220171415
101369.0570659305
101368.6435855359
101367.633020361
101366.910295525
101365.5156813823
101363.2348951048
101361.5374332759
101358.3424572882
101355.0039082449
101351.3157507741
101346.2979286386
101341.2875767601
101335.3084606239
101328.5553156741
101321.6879202543
101313.8864547519
101305.8250680499
101298.3474719997
101289.2667064345
101281.0229543348
101280.3694169804
101280.4589237138
101280.5409253794
101281.2141758751
101281.7375707351
101282.2943195746
101284.02409441
101285.1660468209
101286.5692665511
101289.7998877206
101291.6478125693
101294.80921456
101299.5233328339
101302.7863351665
101308.2834459624
101314.1812273507
101319.6858265664
101327.046253458
101333.9851686274
101341.187851542
101349.2215464895
101356.288780395
101366.3523978864
101368.1768619519
101368.3256698193
101368.4206331148
101368.2311091543
101368.0069753997
101367.912614763
101367.1792456172
101366.2938656458
101365.1508027284
101363.7102227842
101361.0673364492
101358.4095399917
101354.8117088664
101349.8247682706
101345.1018467482
101339.0603698721
101332.2394145782
101325.1477185885
101316.7048783308
101308.6959348585
101299.9135859629
101291.3639933705
101281.0169783607
101277.687309814
101275.4583725102
101274.7103441488
101274.4681746848
101274.2798319621
101274.05902235
101274.2254131679
101274.5120554037
101275.0414817941
101276.7452493178
101278.2731827553
101280.5740682794
101284.534890238
101288.1942856119
101293.3722462206
101299.6758400673
101306.0828547877
101313.5353846396
101322.0760308514
101330.7338453665
101339.8785805495
101349.505065799
101359.2487278496
101366.5842083241
101370.6391002933
101373.6668893384
101374.996107482
101375.7199011591
101376.3144607595
101376.6688055574
101376.5756686482
101375.8957597431
101374.7687159214
101373.1424285499
101370.8357364667
101367.27789165
101363.4095185216
101358.095214888
101351.5338637467
101345.1192707996
101337.2330772297
101329.0817278167
101320.5737446433
101311.3206479769
101301.5191007965
101294.1581396231
101284.3802697464
101282.1140965058
101278.6812651252
101277.8900729806
101277.2092635835
101277.6150454429
101277.7444428963
101277.9148056557
101278.5757337772
101279.3618389087
101280.7476015135
101282.5738397525
101284.9802725325
101288.2715720426
101293.0747532263
101298.3128813229
101304.4836000047
101311.776783653
101319.2223516724
101327.3418638113
101337.1042820981
101344.4323068998
101354.1953496416
101363.4570658165
101368.961913285
101372.6411233623
101375.4730058072
101376.5674034057
101377.0616567714
101377.0043037646
101376.6072980789
101375.6525959249
101374.5625513002
101373.042178136
101370.8240660688
101368.2759660504
101364.5836404631
101359.9384334432
101354.9073128862
101347.9336589949
101340.6177274733
101332.7442853282
101324.1816404779
101315.6066044031
101306.9707063857
101297.9814830418
101289.7827785335
101283.1621613068
101280.5082262666
101278.0783842253
101277.1281093809
101276.7566062867
101277.5708550142
101277.7197804075
101279.0471773899
101280.3065953859
101281.3277266533
101283.3524890777
101285.9445016437
101288.2604317249
101292.0760176429
101297.1308004306
101302.5547611689
101308.8201230204
101316.7597985366
101324.4930505108
101332.7172913908
101341.8931579397
101350.337164823
101358.4924109369
101366.9338585308
101370.9792039385
101375.0093653848
101376.5626182629
101377.7870388454
101377.9500216702
101377.2967035066
101376.7491883197
101375.0053431347
101373.1742010675
101371.1772420114
101367.9570548155
101364.7634021199
101361.3583673251
101355.7801563868
101349.9445926158
101343.9429835721
101336.0010058198
101327.917487188
101319.7564046774
101310.8018600083
101302.391956319
101294.5460512431
101285.9071714802
101281.9348517396
101279.0900032655
101277.0381539462
101276.6851500209
101276.9702070603
101277.3598714831
101278.6361229025
101280.160807639
101281.6334916348
101284.0035077621
101286.4304415243
101288.8989894076
101292.44226397
101296.4162903444
101301.3269976902
101307.4214674753
101314.0734535986
101320.9571037922
101329.706143175
101338.2674790919
101346.1617971423
101355.2755045379
101363.3631814564
101369.9067231709
101373.5865573589
101376.7851908206
101378.3888162825
101378.5870722331
101378.7513249289
101377.6125883541
101376.4949728298
101374.1424020518
101372.0805182059
101369.1329508061
101365.7278099263
101362.0687115149
101357.7760809229
101352.2545472531
101346.3384010337
101339.916706994
101332.061291845
101323.8658629549
101315.588898232
101306.8837512292
101297.8455756357
101290.9465154283
101283.2418839504
101280.6238780642
101277.6123269541
101276.5237894161
101276.3558604223
101276.786658034
101278.042543909
101278.9183008343
101280.8870896635
101283.3224833286
101285.5026504058
101288.7874258952
101292.0445917367
101295.4815926885
101300.3466499401
101305.7067318181
101311.3637822593
101318.5508695019
101325.9487277125
101333.8164177399
101342.9029840091
101350.2505914588
101359.1791529179
101366.6731541529
101371.9475999907
101375.0332839472
101377.4401257497
101378.35291943
101378.5559929477
101378.0668522583
101377.2606233876
101375.0708027267
101372.6645541796
101370.1736806122
101366.5734302303
101362.9575685091
101359.1266428136
101353.9928996934
101348.4273010826
101342.5112193614
101335.5792167021
101328.3171416789
101320.0383765828
101311.8728904832
101303.5703393744
101295.601066454
101286.966991439
101282.8518129672
101279.2962420506
101277.3678243649
101276.9328930526
101277.0092674782
101277.730226169
101279.3686105661
101280.684313075
101282.9736302729
101285.7998466157
101288.3099658488
101291.9821398954
101295.6716308282
101299.3948240149
101304.5621304087
101310.0148994855
101315.7245436603
101322.4945903592
101330.5132045694
101338.2613692105
101346.0489643702
101355.0332560222
101362.5621173901
101369.4954071523
101373.8265074461
101376.8536552954
101378.6546884403
101379.2452221368
101379.0477124962
101378.3033533057
101376.6431256225
101374.0196715628
101371.4852478535
101367.8158557361
101363.9429025092
101359.7134684343
101354.9630038285
101349.6476743327
101343.3023430826
101337.5069382971
101330.2635687598
101322.42300061
101314.9573410825
101306.5195634481
101298.0994989322
101291.5352131852
101283.3442313227
101280.5441101584
101277.2582616941
101276.0992175826
101275.7507148386
101276.5384891559
101277.7593303101
101279.0144284665
101281.4748473762
101284.1742448002
101286.8939009231
101290.8166794452
101294.2504210431
101298.0012205919
101303.2486787433
101307.981356157
101313.5036426
101320.3738213258
101326.7698651682
101334.2192802644
101342.4498712625
101349.4681182404
101357.9291903978
101365.7091629623
101370.9062806467
101374.7906176078
101377.190630386
101378.5688489519
101378.9363577511
101378.4061211388
101377.5082164151
101375.2665247876
101372.5042837448
101369.3424602414
101365.2193542761
101360.7973984839
101356.3554502954
101350.9128893273
101344.9322601469
101338.9019567507
101332.3570236777
101325.5092217569
101317.7317158012
101310.1936075402
101302.3280402464
101294.7814133611
101286.6463747307
101281.5322779663
101277.9823415701
101275.6071913793
101274.6448927524
101274.6405468108
101275.7028174019
101277.6081361522
101279.1684320409
101282.0035134039
101285.1922419169
101288.2321578618
101292.6173419476
101296.349486445
101300.5079387093
101306.0725510217
101310.9503985895
101316.4396172862
101323.0942624963
101329.9532704168
101337.3212634837
101344.7962181603
101353.0179290093
101359.6162890239
101367.5565579779
101371.04983419
101375.2614697347
101376.9396977975
101377.5807181805
101377.8209933813
101377.0893487865
101375.36401868
101373.0273877666
101369.4631286255
101365.9870173126
101361.6041131087
101356.2957188333
101351.7176708313
101345.6325910942
101339.1739628156
101333.4318461042
101326.1868480777
101319.0248155298
101311.9775143622
101304.0025237676
101296.9764576591
101289.7736324265
101282.6056245994
101278.2443803176
101275.6253108179
101273.3921714056
101272.800911789
101273.4657402187
101274.6405395937
101276.0412686981
101278.7868539082
101281.8018191109
101285.1230142435
101289.4848540524
101293.1654658873
101297.5814795673
101302.77491678
101307.3246081265
101313.2169409389
101319.3564728932
101325.3984966928
101332.6387939548
101339.6950728519
101347.028628145
101354.5536783099
101362.4596300895
101367.5782555242
101372.339249065
101374.9219502549
101376.6270126481
101377.5394168468
101377.1933558115
101375.7368521571
101373.6771861227
101371.4582487081
101367.1300375415
101363.3075637922
101358.6128300827
101352.6702136701
101347.7043957469
101341.673678173
101334.6578343665
101328.2814020075
101321.5686015131
101314.2458436594
101307.2600500702
101300.169021536
101292.9060240047
101285.8286421832
101280.4467041854
101277.4532868401
101274.8046279337
101273.1961709557
101273.0184405598
101273.5134337078
101275.5443844923
101277.3719834131
101280.326227524
101284.0067654752
101287.5264574784
101292.4200179514
101296.5922135516
101301.2033990726
101306.9720695356
101311.9067026154
101317.2677869355
101323.636442263
101329.631260097
101336.2617994852
101343.657847734
101349.8821504093
101357.3653217213
101363.8776015991
101368.9307885796
101372.1308528869
101374.9778254527
101375.9377847977
101376.5232919699
101375.7685874803
101373.7838713995
101372.3380901182
101368.9238358198
101363.8939506321
101359.952951613
101354.2398980603
101348.4831685017
101342.820891848
101335.7852178203
101329.6049803971
101322.5162006533
101315.4672219887
101308.3511230516
101301.0863869246
101294.1568567483
101287.8011417681
101281.0994747743
101277.1504637368
101274.4300558174
101272.0121123028
101271.2565188851
101271.4374933391
101272.1876748423
101274.0209568466
101276.0503890856
101279.4348991732
101283.4340734586
101287.4128287438
101292.6096029922
101297.5063109312
101302.4920830349
101308.3531950803
101314.0303795632
101319.3430586098
101325.5957276864
101331.9443303823
101338.1189269965
101344.8965239298
101351.6234570956
101358.9480032819
101363.5212464436
101368.4951585436
101371.6091392037
101373.6571288334
101374.5699388022
101374.7689918231
101374.1275234646
101372.17691436
101369.0235362049
101365.6589303275
101360.8633635363
101355.4536349003
101350.1594133652
101343.8689643967
101337.6153876897
101330.4872437982
101323.5534155578
101316.7481587833
101309.4702921636
101302.5586467219
101295.6083658539
101288.6409520904
101282.3632497782
101277.1869781116
101274.2553632847
101271.2403722225
101269.7425732749
101269.5074714382
101270.2113377785
101271.6146858439
101273.4534824287
101276.3559025084
101279.535923693
101283.6013618755
101288.5412183573
101293.2072946286
101298.7177851414
101304.5748597687
101309.8572105318
101315.7998518767
101321.967297439
101327.6790453179
101333.7939073328
101340.7825918058
101345.6708813379
101352.8360616521
101358.527882106
101363.5064043901
101367.0065588039
101370.3345644807
101371.8913704979
101373.1513756544
101372.8881112916
101371.45436695
101369.8318328285
101366.485044482
101361.745355344
101357.1085702095
101350.7911242687
101344.9258375328
101338.5520137581
101330.9641142109
101324.4425657842
101316.899704992
101309.7042029444
101303.187421574
101295.4454878502
101288.9569202851
101283.6148230518
101276.7640848134
101273.464534005
101270.5066543622
101268.4734299535
101267.2810814005
101267.7125253072
101268.6014323466
101270.6161018904
101272.5920300543
101275.7763927153
101279.8345020122
101283.6219606186
101288.7549410075
101293.9149402826
101299.2254812045
101305.3125571123
101311.2059191294
101317.1748703118
101323.3134026468
101329.568182713
101335.5829701799
101341.6037369764
101347.6481087545
101353.1018751158
101358.2473397604
101361.8560272623
101365.394859667
101367.2099027959
101369.5481226365
101369.9507279113
101369.6329487236
101369.014431677
101365.8226717054
101363.0812078147
101358.3309977156
101351.9778924678
101346.4229776098
101339.6902046102
101332.2307269301
101325.016571517
101317.543602734
101309.9558987057
101302.849434201
101295.8717641751
101288.836428547
101282.4983055876
101276.5730819842
101271.7697833777
101268.8800337904
101265.9421826126
101264.4367663669
101264.0614666089
101264.9918231284
101265.9417271219
101268.0751305308
101270.9308755774
101274.0503193484
101278.4766021835
101283.2578215095
101288.1435996775
101294.1331672206
101299.8995789368
101305.5602766438
101311.4951934166
101317.6111845932
101324.0292828547
101329.8040412839
101335.9229812721
101341.9825281198
101347.0660199981
101352.8268015658
101356.738168587
101359.2176534647
101362.95717809
101364.3898979264
101365.4675873663
101366.156457038
101365.3164754792
101364.7799393491
101361.7666357435
101358.2564791643
101353.2596202442
101347.2036375753
101340.698961061
101333.2118711118
101325.2480765931
101317.1810830178
101309.0610208507
101301.9632642553
101294.4897983635
101287.5576034384
101281.5040338506
101276.0889418113
101270.4650324907
101267.4447729363
101264.5097972828
101262.3857451652
101261.1126752377
101261.6199035576
101262.6585915188
101264.009429251
101266.3671232927
101270.0933532292
101273.0609751455
101277.2862660806
101283.1183129947
101287.5544104092
101293.0810414729
101300.7123085757
101304.7052788878
101311.4850013042
101320.7375801942
)
;

boundaryField
{
    inlet
    {
        type            uniformFixedValue;
        uniformValue    sine;
        uniformValueCoeffs
        {
            frequency       constant 3000;
            scale           constant 50;
            level           constant 101325;
        }
        value           uniform 101312.8819131453;
    }
    outlet
    {
        type            waveTransmissive;
        gamma           1.4;
        fieldInf        101325;
        lInf            2.25;
        value           uniform 101322.2727981922;
    }
    frontAndBack
    {
        type            empty;
    }
}


// ************************************************************************* //
