/*--------------------------------*- C++ -*----------------------------------*\
| =========                 |                                                 |
| \\      /  F ield         | OpenFOAM: The Open Source CFD Toolbox           |
|  \\    /   O peration     | Version:  v2012                                 |
|   \\  /    A nd           | Website:  www.openfoam.com                      |
|    \\/     M anipulation  |                                                 |
\*---------------------------------------------------------------------------*/
FoamFile
{
    version     2.0;
    format      ascii;
    class       volScalarField;
    location    "0.012";
    object      rho;
}
// * * * * * * * * * * * * * * * * * * * * * * * * * * * * * * * * * * * * * //

dimensions      [1 -3 0 0 0 0 0];


internalField   nonuniform List<scalar> 
1000
(
1.176238185603297
1.176290137288228
1.176253684365692
1.176169306069248
1.176146812430893
1.176098159285945
1.176057860758865
1.176054259955352
1.176011603720962
1.176008496661024
1.176009633173587
1.176008885106117
1.176018997965498
1.176032112993201
1.176046731249099
1.176088207301618
1.176115647109398
1.176161299094504
1.176214250019977
1.176256444417141
1.176312954285537
1.176366628462196
1.176421727999189
1.176478221072007
1.176530829297996
1.176585289823139
1.176633383206257
1.176678377759412
1.176720559699622
1.176754093980445
1.176799534391835
1.176807956006843
1.176809533894339
1.176809511362622
1.17680176634512
1.176799394120351
1.176789245721303
1.176763400788816
1.1767531427644
1.176712380014739
1.17667144999452
1.176640254011578
1.176572514918167
1.176525648441601
1.176473200404758
1.176407519167827
1.176359706929365
1.176303611560655
1.176248638114852
1.176200782851442
1.17615162601744
1.176108691020785
1.176063743686867
1.176021534803218
1.176019118642806
1.176020173498102
1.176018866776022
1.176025831187567
1.176026936375018
1.176041332564426
1.176058394926687
1.17606973628876
1.176108830980063
1.176139083072846
1.176177448055621
1.176233168241318
1.176280481707771
1.17633853214238
1.176398073318151
1.17645284030168
1.176510250876227
1.176563151077039
1.17661378789336
1.17666257858452
1.176706025683491
1.176757639948386
1.176798406221668
1.176800372522726
1.176800350536104
1.176797305350723
1.176796736122055
1.176790301928291
1.176776904798846
1.176771434267764
1.176745658083553
1.176720993639812
1.176697360778319
1.176647979300846
1.176612126658548
1.176559850752287
1.176500863940274
1.176449020789987
1.176383774137143
1.176327193019574
1.176270244726951
1.176213497173445
1.176163985662414
1.176117703928578
1.176058827884854
1.176029315361814
1.176027271256873
1.17602774438842
1.176030609446513
1.176030454249641
1.176038457414138
1.176048845538614
1.176053868969892
1.176079840773987
1.17609904638206
1.176123867817236
1.176168703884222
1.176202697772745
1.176252963933651
1.176308326253786
1.176360237848062
1.176422650886417
1.176481013488149
1.176539200677279
1.176596942697489
1.176650057499457
1.176698009397376
1.176756191767826
1.176792600960041
1.176793670245044
1.176792818345516
1.176792618021242
1.176788977220165
1.176784291108926
1.176776155162965
1.176765208844377
1.176748781719436
1.176723762049346
1.176706197720496
1.176664324932527
1.176626769533702
1.176588833948334
1.176526408145545
1.176479015739197
1.176419624104201
1.17635486177405
1.176298875297853
1.17623685747807
1.176179623043591
1.176129998736697
1.176060688526004
1.176033606368242
1.176031963877717
1.176032341457734
1.176035115966937
1.176035060423782
1.176042328314828
1.176051747786252
1.176056813319909
1.176079353775881
1.176096020963904
1.176118862036557
1.176157042852577
1.176187228051153
1.176233649931918
1.176282300779067
1.176331885990456
1.176392269942688
1.176448563192727
1.176510237609005
1.176570267349389
1.176628528580742
1.176683207668014
1.176753821899726
1.176787404420604
1.176787584307369
1.176787403559545
1.17678692271971
1.17678345274982
1.176779819215964
1.176773491733308
1.176761199585403
1.176749786235835
1.176728949606979
1.176705822779874
1.176678414798903
1.176640769381447
1.176602576291447
1.176555814210424
1.176503440651784
1.176448980446809
1.176388862092124
1.176327466697086
1.176265576927877
1.17620259054245
1.176145414125169
1.176067814992135
1.176037196795938
1.176036653155121
1.176037633494592
1.176038347184168
1.176040648999449
1.176047063961281
1.176050626497652
1.176063398851222
1.176076957660633
1.176092299855465
1.17611953871259
1.176143851293928
1.176178103408006
1.176218448830968
1.17625996630238
1.17631095245328
1.176363834333562
1.1764207449507
1.176481336180926
1.176542067156142
1.1766046307625
1.17666214697953
1.176738850489827
1.17678117360091
1.176783002527696
1.176782752222842
1.176780902037491
1.17678093652714
1.176774168554295
1.176769573541368
1.176762219610812
1.176743979841571
1.176735400238021
1.176709882252174
1.176682027047317
1.176658322410078
1.176613192338759
1.176575509574263
1.176528487275912
1.176470553082138
1.176419054385083
1.176354370622633
1.176291904840117
1.176228195233871
1.176165765990493
1.176082449570096
1.176043924987125
1.176043483126888
1.176043257652587
1.176044055534354
1.176046123630366
1.176049923898549
1.176055304283986
1.176064640477619
1.176077142406536
1.176091887411795
1.176114628358936
1.176138516977402
1.176168591997735
1.176205622566328
1.176244124328533
1.176291156647575
1.176340564960173
1.176395130493155
1.176453546735738
1.176514088790689
1.176578737850246
1.176639001787795
1.176713304335438
1.176775871724068
1.176779178494815
1.176779974544824
1.176779186877364
1.176776990187142
1.176773562070104
1.17676518359071
1.176759191557352
1.176747628960484
1.17672871900926
1.176714645411541
1.176688155668109
1.176660475275015
1.176629896065602
1.176588291640933
1.176546748693995
1.17649717252123
1.176441177371138
1.176384233851687
1.176319543744496
1.176252696878154
1.176190689456005
1.17611538657182
1.17604702204786
1.176041602329138
1.176042344590248
1.176043024606928
1.17604860779203
1.176052948249536
1.176057565300867
1.176071910044032
1.176081380074806
1.176093016733071
1.17611980732543
1.17613513167079
1.176161348114387
1.176200439867919
1.176227498352513
1.176273082297435
1.176321987730783
1.176367632573227
1.176428664509289
1.176486200370704
1.1765459222006
1.176612532480495
1.176671129323096
1.176754566290408
1.176769692727659
1.176770926475085
1.176771713801995
1.176770142486029
1.176768284216548
1.176767501899346
1.176761421607649
1.176754080997663
1.176744603946853
1.176732660194407
1.17671074798756
1.176688712034298
1.176658881997499
1.17661753401621
1.176578374750932
1.17652828199819
1.176471725220921
1.176412922484373
1.176342914629004
1.176276503248644
1.176203676721135
1.176132779091674
1.176046972984606
1.17601936012761
1.176000875514963
1.17599467209461
1.175992663786595
1.175991101854926
1.175989270692157
1.175990650605386
1.17599302775875
1.175997418351015
1.176011547753962
1.176024218937394
1.176043300149145
1.176076146692094
1.176106493398764
1.176149432618911
1.176201705481798
1.176254835158352
1.176316633249588
1.176387452858174
1.176459242168774
1.17653506689797
1.176614884357537
1.17669567083049
1.176756488992706
1.176790107507568
1.176815210263088
1.176826230455032
1.176832231225771
1.176837160542473
1.176840098292875
1.176839326119525
1.176833689195154
1.176824345224021
1.176810862158356
1.176791737916944
1.176762240430488
1.176730168080872
1.176686107023348
1.176631705810657
1.176578520344495
1.176513131964268
1.17644554366707
1.176374996518962
1.176298268885305
1.176216991515522
1.176155950599034
1.176074865274115
1.176056072185772
1.176027603988956
1.176021042671179
1.176015396773431
1.1760187619316
1.176019835042648
1.176021247876451
1.176026728924671
1.176033248084599
1.176044740149842
1.176059884971744
1.176079841192699
1.176107135369881
1.176146966677812
1.176190404233164
1.176241574649349
1.176302051780062
1.17636379124913
1.17643111767809
1.176512064907475
1.176572825119416
1.176653773826356
1.17673056331425
1.176776203457591
1.176806707042377
1.176830185460297
1.176839258794372
1.1768433565094
1.176842881014837
1.176839589570543
1.176831674438077
1.176822637212171
1.17681003218941
1.176791642301334
1.176770516514862
1.176739903848422
1.17670139045134
1.176659676977283
1.176601856657805
1.176541197221857
1.176475913782087
1.176404914137839
1.176333809950652
1.176262199259536
1.17618765713226
1.176119668355267
1.176064764800913
1.176042756103957
1.176022605508471
1.176014724912979
1.176011644088828
1.1760183966383
1.176019631756077
1.17603063978121
1.176041084028131
1.176049552259075
1.17606634340643
1.176087838471785
1.176107044067457
1.176138685728331
1.176180602996668
1.176225581143493
1.176277535737127
1.176343372954019
1.176407496948751
1.176475690712172
1.176551773308614
1.176621785742894
1.176689402576646
1.176759390374806
1.176792929753501
1.176826342782437
1.176839220299524
1.176849371654617
1.176850722888373
1.176845306403832
1.176840767212991
1.176826309531189
1.176811127997401
1.176794571764614
1.176767873752705
1.176741395402091
1.176713164555095
1.176666915113181
1.176618531089223
1.176568769848704
1.176502918766004
1.176435892506778
1.176368221775516
1.176293969626906
1.176224232019157
1.176159169969274
1.176087530160066
1.176054588323582
1.176030996209732
1.176013980346886
1.176011052903065
1.176013416846942
1.176016648384608
1.176027232306312
1.176039876410733
1.176052089287834
1.176071743555978
1.176091869685133
1.176112340814901
1.17614172410952
1.176174679260581
1.176215401346615
1.176265938964929
1.176321098801232
1.176378178482791
1.176450724519448
1.176521712219502
1.176587167737452
1.176662732132411
1.176729787607057
1.176784039355924
1.176814548061127
1.176841067072129
1.176854362151903
1.176856005801703
1.176857367588244
1.176847926734233
1.17683866099734
1.176819156478939
1.176802061978492
1.176777624267728
1.176749392624448
1.176719055317571
1.176683464858591
1.176637684901286
1.176588632543482
1.17653538737578
1.176470253232775
1.176402298528716
1.17633366587624
1.176261480919504
1.176186532772361
1.176129321547957
1.176065428682849
1.176043717859548
1.176018743219444
1.176009715977332
1.176008323400948
1.176011895996263
1.176022311013368
1.176029573673415
1.176045900705828
1.176066097081736
1.176084176971416
1.17611141686175
1.176138427513477
1.176166929425114
1.176207273108748
1.176251721051227
1.176298630942088
1.17635822723554
1.176419569894992
1.176484806947154
1.176560148886236
1.176621070513818
1.176695099027843
1.17675723149545
1.176800961121857
1.176826543681437
1.176846497995861
1.176854065776465
1.176855749417305
1.176851694033545
1.176845009947345
1.176826854814756
1.176806905145333
1.176786253954297
1.176756404813518
1.176726425832877
1.176694663681096
1.176652099259734
1.176605953376265
1.176556900940244
1.176499424057784
1.176439208928009
1.176370562385503
1.176302853411268
1.176234006199236
1.176167921292191
1.176096321564947
1.176062195040211
1.176032708960357
1.176016716727852
1.176013109892118
1.176013743257352
1.17601972222174
1.176033309252101
1.176044220296443
1.176063205380823
1.176086642711169
1.176107458653108
1.176137910885179
1.176168506422167
1.176199381311635
1.176242230835748
1.176287446845152
1.176334792297337
1.176390929742486
1.176457418917424
1.17652166401716
1.176586234708408
1.17666072609467
1.176723148474152
1.176780631671097
1.176816539894314
1.176841637084361
1.176856568821722
1.176861464742807
1.176859827245718
1.176853656085818
1.176839891775915
1.176818141410038
1.176797129203651
1.17676670689863
1.176734596514072
1.176699530383685
1.176660143689616
1.17661607320251
1.176563461781073
1.176515409091423
1.176455349583706
1.1763903368192
1.176328431391299
1.176258463490169
1.176188640815242
1.176134205908433
1.176066279913282
1.176043058753175
1.176015809374289
1.176006197416771
1.176003307331864
1.176009840381146
1.176019964809781
1.176030373367799
1.176050777407435
1.176073163130022
1.176095716856052
1.176128247347414
1.176156722143725
1.176187826069701
1.17623134041798
1.176270585403451
1.176316377518224
1.176373345605602
1.176426381086304
1.176488149806464
1.176556394341869
1.176614585295669
1.176684737867415
1.176749241619061
1.176792330156857
1.176824534209345
1.176844432045294
1.176855858378656
1.176858905223613
1.176854509226475
1.176847065051106
1.176828479919627
1.176805578822655
1.176779364891896
1.176745180732528
1.176708518289019
1.17667168987264
1.176626564612692
1.17657697719933
1.176526977161954
1.176472709083702
1.176415928555814
1.176351437885138
1.176288930839406
1.176223706966045
1.176161126619015
1.176093665222493
1.176051254758653
1.176021815246574
1.176002118172231
1.175994137794662
1.175994101769728
1.176002911275099
1.176018712060433
1.176031651576554
1.176055162676609
1.176081606348587
1.176106815796673
1.176143180711355
1.17617412996783
1.176208614154569
1.176254758110439
1.176295206645982
1.176340724180005
1.176395904551073
1.1764527784521
1.176513871435741
1.176575850022867
1.176644018915634
1.176698726796228
1.176764559298192
1.17679352144901
1.176828439074765
1.176842352787183
1.176847667296631
1.176849659287535
1.176843593465437
1.176829289311257
1.176809916966621
1.176780366423301
1.176751546436704
1.176715208017225
1.176671195624781
1.176633238243611
1.176582785069065
1.176529233523227
1.176481622247859
1.176421548530261
1.176362161369931
1.176303724445429
1.1762375936154
1.176179330170374
1.176119599985194
1.176060157019466
1.176023989443223
1.176002269472662
1.17598374996377
1.175978846654816
1.175984360115236
1.175994102797923
1.176005719165582
1.176028488286612
1.176053491146923
1.176081033489006
1.176117205149169
1.176147727279333
1.176184347562
1.176227414025699
1.176265141729397
1.176314002371759
1.176364911962196
1.17641501210476
1.176475047148183
1.176533555079636
1.176594360880583
1.1766567531224
1.176722302070014
1.176764740282841
1.176804212775016
1.176825625218014
1.176839761439274
1.17684732590593
1.176844456828277
1.176832381495961
1.176815305311989
1.176796908668159
1.176761024121051
1.176729332314534
1.176690408201957
1.176641136969917
1.176599964187227
1.176549961021351
1.176491788759768
1.176438917222314
1.176383255404877
1.176322534860968
1.176264607167163
1.176205805540585
1.176145576838738
1.176086886073977
1.176042254300638
1.176017429966904
1.175995464570182
1.175982125493873
1.175980651586192
1.175984756668848
1.176001599417946
1.176016755748078
1.176041255238794
1.176071777478791
1.176100965747677
1.176141546576952
1.176176144949065
1.176214383355757
1.176262219334235
1.176303138639132
1.17634759348163
1.17640040233819
1.176450110506614
1.176505088830068
1.176566413424337
1.176618021371485
1.176680065935161
1.176734059429516
1.176775954940123
1.17680248601404
1.176826089505227
1.176834048292076
1.176838902603196
1.176832645563497
1.176816190792126
1.176804204257266
1.17677589742103
1.176734195004206
1.176701520292752
1.176654152637414
1.176606422090402
1.176559474199558
1.176501137562586
1.176449892970584
1.176391114011658
1.176332663612013
1.17627365568575
1.176213413922812
1.176155950518546
1.176103244642964
1.176047668697395
1.176014919666269
1.175992359147615
1.175972307002859
1.175966040836808
1.175967541638358
1.17597376304272
1.175988966619787
1.176005796876578
1.176033864527208
1.17606702932907
1.176100024565065
1.176143119731814
1.176183726222942
1.17622507077894
1.176273673080685
1.176320749567015
1.176364802792723
1.17641664956528
1.176469290898673
1.176520488426391
1.176576684792122
1.176632460077282
1.176693189067069
1.176731105897159
1.176772344151439
1.176798161632458
1.176815141002974
1.17682270884285
1.176824359126271
1.17681904094371
1.176802868931736
1.176776724823231
1.176748829386757
1.176709069499271
1.176664216841883
1.176620321365723
1.176568165067888
1.17651631355352
1.176457209515322
1.176399715417601
1.176343286283868
1.176282937121541
1.176225623486369
1.176167988290612
1.176110209981893
1.176058150110585
1.176015223495364
1.175990911463373
1.17596590780694
1.175953486284201
1.175951536568605
1.175957373866305
1.175969012037239
1.175984261431493
1.17600833137117
1.176034703269737
1.176068417646375
1.176109382865018
1.176148077199357
1.176193773420114
1.176242342851736
1.176286145726567
1.176335423207258
1.176386563891402
1.176433925005273
1.176484627907886
1.176542575292367
1.176583106161145
1.176642514946857
1.176689706652092
1.176730983712428
1.176760003254829
1.176787595220021
1.176800502403659
1.176810948845727
1.176808766178236
1.176796879292907
1.176783427187879
1.176755679534636
1.176716382906764
1.176677939094294
1.176625559929718
1.176576928884512
1.176524080576164
1.176461164446248
1.17640708903598
1.176344543842032
1.176284877619509
1.176230838446822
1.176166638572041
1.176112831052111
1.176068530174454
1.176011717388279
1.175984353954626
1.175959823888064
1.175942961932924
1.175933073554791
1.17593665161096
1.175944023534465
1.17596073154226
1.1759771182106
1.176003526410857
1.176037180245444
1.176068589401363
1.176111156114732
1.17615394639937
1.176197984417236
1.176248460985908
1.176297330469605
1.176346825855554
1.176397726526465
1.176449590252204
1.176499463033903
1.176549384532363
1.176599500945809
1.176644719631855
1.176687381465432
1.176717301254061
1.176746641603678
1.176761689961293
1.176781075771448
1.176784413690303
1.176781779113031
1.176776651113357
1.176750188508123
1.176727459295173
1.17668807528291
1.176635400464566
1.176589343085998
1.176533518718711
1.176471667605364
1.176411849452146
1.176349883850907
1.176286965606277
1.176228036533618
1.176170174276326
1.176111832735646
1.176059271928006
1.176010134242779
1.175970300029448
1.175946334867575
1.175921970526873
1.175909485704547
1.175906373219015
1.175914088925191
1.175921966798627
1.175939659669179
1.175963342851828
1.175989212878042
1.176025920172752
1.176065570416746
1.176106087369318
1.17615575692349
1.176203575137362
1.176250516023963
1.176299729997108
1.176350444662961
1.176403663482713
1.176451546865664
1.176502283351882
1.176552526408612
1.176594675656616
1.176642439643282
1.176674869493056
1.176695426357177
1.176726430741528
1.176738308349268
1.176747242669432
1.176752954350552
1.176745990106115
1.176741543822913
1.176716563835813
1.176687466090014
1.176646042650381
1.176595836830373
1.176541908232007
1.176479827947787
1.176413786392973
1.176346880736597
1.176279522124613
1.176220626416298
1.176158598040863
1.176101046924359
1.176050789360215
1.1760058509337
1.175959220065661
1.175934270008667
1.175909970814007
1.175892644039448
1.175882429423054
1.175887064681646
1.175896372821686
1.175908154816185
1.175928401378946
1.175960291515278
1.175986259402454
1.176022962908837
1.176072757585186
1.176109276186542
1.176152739891271
1.176208484108375
1.176237447732127
1.176274693304092
1.176360020967562
)
;

boundaryField
{
    inlet
    {
        type            calculated;
        value           uniform 1.176271021779363;
    }
    outlet
    {
        type            calculated;
        value           uniform 1.176365794819354;
    }
    frontAndBack
    {
        type            empty;
    }
}


// ************************************************************************* //
