/*--------------------------------*- C++ -*----------------------------------*\
| =========                 |                                                 |
| \\      /  F ield         | OpenFOAM: The Open Source CFD Toolbox           |
|  \\    /   O peration     | Version:  v2012                                 |
|   \\  /    A nd           | Website:  www.openfoam.com                      |
|    \\/     M anipulation  |                                                 |
\*---------------------------------------------------------------------------*/
FoamFile
{
    version     2.0;
    format      ascii;
    class       volScalarField;
    location    "0.012";
    object      T;
}
// * * * * * * * * * * * * * * * * * * * * * * * * * * * * * * * * * * * * * //

dimensions      [0 0 0 1 0 0 0];


internalField   nonuniform List<scalar> 
1000
(
299.9812192093133
299.9847613288509
299.9800036375518
299.9716719081604
299.9701507568626
299.9661684876197
299.9626998193877
299.9628179287694
299.9584757988513
299.9583159598872
299.9587552733948
299.9589907085455
299.9601910501347
299.9616230784978
299.9631519910039
299.9673703588129
299.9701534015222
299.9747697933568
299.9801092354609
299.9843359153875
299.9900182125583
299.9954217950335
300.0009884681446
300.0067139018201
300.0120565187307
300.0176030188309
300.0225150671768
300.0271255665818
300.0314502333737
300.0348759228622
300.0395548870391
300.0404343977735
300.0406008144315
300.0406288014519
300.0398422023456
300.0396009074478
300.038560339635
300.0359190379032
300.034865848665
300.0306990013069
300.0265150731258
300.0233247193839
300.0164073855354
300.0116214730396
300.0062680501225
299.9995662544586
299.9946886072083
299.9889661220111
299.9833581015498
299.9784759983996
299.9734602399714
299.9690787318195
299.9644909330144
299.9601826768349
299.9599358952793
299.9600429642322
299.9599091339525
299.960619445223
299.9607317238466
299.9622009166792
299.9639423696205
299.96509986228
299.9690905075784
299.9721784972106
299.976094478313
299.981781967527
299.9866110956751
299.9925359165766
299.9986127003517
300.0042019443584
300.0100608230976
300.0154592057185
300.0206264408082
300.0256051907031
300.0300385638957
300.0353051892663
300.0394649201485
300.0396655479501
300.0396633121617
300.0393526096777
300.0392945463365
300.0386380304582
300.0372710452713
300.0367128284769
300.0340826813558
300.0315659562247
300.0291543360083
300.0241154199979
300.02045677422
300.0151221316277
300.0091026173385
300.0038117711951
299.9971530592733
299.9913784594825
299.9855662039536
299.9797743557889
299.9747208457877
299.9699968384087
299.9639872718611
299.9609748227692
299.9607661709928
299.9608144669123
299.9611069228164
299.9610910872623
299.9619080150876
299.9629683883609
299.9634811306929
299.9661321962536
299.9680925623399
299.9706260451699
299.9752025320868
299.9786721370638
299.983802546712
299.9894530240452
299.9947510319083
300.0011207560108
300.0070768883803
300.0130149256386
300.0189074276057
300.0243275563878
300.0292206569879
300.0351576087993
300.0388727682555
300.0389818881912
300.0388949990016
300.0388745883266
300.0385031152415
300.0380249878295
300.0371948298606
300.0360779278017
300.0344017544335
300.0318488052748
300.0300564870012
300.025783772423
300.021951508603
300.0180802002665
300.0117099166324
300.0068734070549
300.0008122109921
299.9942028643261
299.9884888126942
299.98215914842
299.9763175062484
299.971252270188
299.9641777770578
299.9614134422
299.961245795496
299.9612843490181
299.9615675943634
299.9615619613856
299.9623038580531
299.963265378866
299.963782445971
299.9660832705954
299.9677845548994
299.9701159446903
299.9740131308919
299.9770940349705
299.981832148508
299.9867976738732
299.9918583439519
299.9980210944186
300.0037661107389
300.0100601340736
300.0161861708595
300.022131510627
300.0277110949513
300.0349166768432
300.0383434024175
300.0383617789903
300.0383433452181
300.0382943209014
300.0379402724454
300.0375695438691
300.0369239253903
300.0356696934363
300.0345051128806
300.0323789928413
300.0300191536519
300.0272223970695
300.0233809792742
300.0194835526161
300.0147116058313
300.0093669219581
300.0038091065172
299.9976737223046
299.9914077784005
299.9850912355194
299.9786625993851
299.9728265450294
299.9649060645829
299.9617807651558
299.9617252833271
299.9618253682603
299.9618982363119
299.9621332087361
299.962788034763
299.9631516957194
299.9644554434337
299.9658394635031
299.967405477556
299.9701858303363
299.9726674151653
299.9761634801919
299.9802814368392
299.984518868371
299.9897226483127
299.9951197377317
300.0009278382582
300.0071114069555
300.0133090618783
300.0196935484528
300.0255626661395
300.033389642589
300.0377082836213
300.0378949076024
300.0378693784834
300.0376806117033
300.037684149665
300.0369935773688
300.0365247295011
300.0357743534015
300.033913230263
300.0330377647364
300.0304339222507
300.0275915795825
300.0251726255041
300.0205674194372
300.0167220024949
300.0119233813051
300.0060112012641
300.0007554700071
299.99415403968
299.9877788012402
299.9812763328216
299.974904284897
299.9664002534337
299.9624679716447
299.96242288454
299.9623998692224
299.962481332927
299.9626924408991
299.9630803606311
299.963629569259
299.9645825596948
299.9658586850816
299.9673637459939
299.9696849641589
299.9721232917982
299.9751930052918
299.9789726312801
299.982902301998
299.9877025715078
299.9927452078348
299.9983140411325
300.004275729673
300.0104541490992
300.0170515083228
300.0232012003725
300.0307830909374
300.0371675695534
300.0375049849899
300.0375862168884
300.0375058551198
300.0372817192424
300.0369319287993
300.0360770170133
300.0354656044666
300.034285768255
300.0323562350608
300.0309201452343
300.0282171108475
300.0253925503413
300.0222720924814
300.018026560356
300.0137871666202
300.008727885368
300.0030134141218
299.9972019713833
299.9905997596332
299.9837771969248
299.9774483961407
299.9697621564612
299.9627842098184
299.9622309880891
299.9623067584881
299.9623761771565
299.9629460879108
299.9633891393825
299.9638604230875
299.9653246592356
299.9662912893145
299.9674790587711
299.9702136605895
299.9717777927991
299.974453647089
299.9784437355939
299.9812054037597
299.9858578722603
299.9908493043125
299.9955076677382
300.0017364181855
300.0076081130903
300.0137026888926
300.0205002026593
300.0264793731593
300.0349935770866
300.0365370410433
300.0366629287885
300.0367432657154
300.0365829324474
300.0363933216841
300.0363134907756
300.0356930776438
300.034944061285
300.033977039157
300.0327583003037
300.0305223931396
300.0282738201146
300.0252298668951
300.0210105716108
300.0170144660577
300.0119025659752
300.0061308541067
300.0001297356029
299.992984915502
299.9862068519482
299.9787738640884
299.9715372937198
299.9627790249311
299.9599604600592
299.958073613837
299.957440379838
299.9572353702923
299.957075929569
299.9568889990714
299.9570298494797
299.9572724999009
299.9577206698117
299.9591629535909
299.9604563651885
299.9624040564156
299.9657568569379
299.9688543737815
299.9732371880652
299.9785725729054
299.9839952139364
299.9903024879064
299.9975302042118
300.0048566643797
300.0125947221898
300.020739797048
300.0289835417942
300.0351894861999
300.038619828603
300.0411811893716
300.0423056267618
300.0429179054474
300.043420859171
300.0437206111225
300.0436418255675
300.0430666748816
300.0421132659288
300.0407375066474
300.0387861406016
300.035776285929
300.0325036432881
300.0280076115756
300.0224562979914
300.0170289222912
300.0103561116853
300.0034585141315
299.9962587401943
299.9884279775712
299.9801324465595
299.973902162263
299.9656257643565
299.9637074953703
299.9608015983069
299.9601318392171
299.9595555097924
299.9598990086216
299.9600085407491
299.960152750907
299.960712238437
299.9613776775932
299.9625507215918
299.964096614212
299.9661336004067
299.9689195241486
299.9729851134123
299.9774187055206
299.9826414114844
299.9888138770532
299.9951149812671
300.0019860553049
300.0102469107567
300.0164474974614
300.024707834909
300.0325436085757
300.0372006702818
300.040313151353
300.0427087504816
300.0436345280097
300.0440526234312
300.0440041071496
300.0436682702673
300.0428606588586
300.0419385469351
300.0406523984792
300.0387759768755
300.0366203382251
300.0334966570905
300.0295667404615
300.0253101644257
300.0194098975418
300.0132197208366
300.0065574785183
299.999311627423
299.9920548725075
299.9847461939915
299.9771379510818
299.9701984360915
299.9645943759234
299.9623478168126
299.9602909476014
299.959486517489
299.9591720187682
299.9598613003287
299.9599873474928
299.961111015908
299.9621771275713
299.9630414935963
299.9647554228788
299.9669495074701
299.9689098185899
299.9721394486204
299.9764178917439
299.9810086174608
299.9863112707844
299.9930306482509
299.9995749935576
300.0065344438545
300.0142986924542
300.0214432620873
300.0283430518575
300.0354846564903
300.0389069028006
300.0423162276625
300.0436301799891
300.0446659205697
300.0448037905912
300.044251148556
300.0437879733838
300.0423128006024
300.0407637672876
300.0390744053404
300.0363502175919
300.0336484397499
300.0307676874544
300.0260483202268
300.0211110421007
300.0160329815479
300.0093128985374
300.0024726833055
299.9955663835959
299.9879882452734
299.9808705899234
299.9742298405423
299.9669175874141
299.9635551046348
299.9611469430553
299.9594100024993
299.9591111718875
299.9593524881727
299.9596823339115
299.9607627012974
299.9620533635146
299.9632999773325
299.9653061532331
299.9673604777368
299.9694499801453
299.9724491367404
299.9758127794835
299.9799691327393
299.98512721692
299.9907568853881
299.9965823563481
300.0039860480736
300.0112305056114
300.0179101506464
300.0256210595358
300.0324634969497
300.0379992802486
300.0411122616067
300.0438180784461
300.0451746236519
300.0453423357537
300.0454812721094
300.044517995671
300.0435725682794
300.0415824605355
300.039838195875
300.0373446585781
300.0344639726718
300.0313683224921
300.0277366405971
300.0230651004678
300.018059445132
300.0126258731781
300.0059788646932
299.9990436928985
299.9920391874106
299.9846719068638
299.9770222426617
299.9711827866545
299.9646611575915
299.9624450364071
299.9598957299075
299.9589742601513
299.9588320884918
299.959196772619
299.960259912471
299.9610012422858
299.9626678306681
299.9647293836732
299.9665748097965
299.9693552379326
299.9721122393934
299.9750213378125
299.979139070456
299.9836756516354
299.9884633661154
299.9945457226167
300.0008061594413
300.0074638393212
300.0151524662832
300.0213693570159
300.0289233919865
300.0352634427173
300.0397254627078
300.0423357990833
300.0443718282052
300.0451439437711
300.0453157183659
300.0449019709507
300.0442199464601
300.0423675181957
300.0403319927098
300.0382247856039
300.0351790470891
300.0321200503479
300.0288789620213
300.0245355334521
300.0198266062454
300.0148208917761
300.0089553275727
300.0028102236583
299.9958043692291
299.9888940161048
299.9818672797338
299.9751221753245
299.9678140374728
299.9643306720155
299.9613209079691
299.9596884565624
299.9593202658588
299.9593849205082
299.9599952107867
299.9613821318592
299.9624958746631
299.9644337564388
299.9668260837489
299.9689507746456
299.9720590560511
299.9751819093053
299.9783331565689
299.9827066051024
299.9873214918759
299.9921535656456
299.9978828262234
300.0046683649746
300.0112247088734
300.0178140415574
300.0254154698761
300.0317851570545
300.0376506907062
300.0413146164549
300.0438753834287
300.0453989113942
300.045898443462
300.0457313730644
300.0451016978222
300.0436972593813
300.041478011298
300.039333990156
300.0362297946946
300.0329533177386
300.0293751054788
300.0253560151611
300.0208588158147
300.0154899599032
300.0105862144521
300.0044569733661
299.9978220662893
299.9915040792282
299.9843630341135
299.9772365550667
299.9716804479857
299.9647471608018
299.9623769001437
299.9595953910412
299.9586142317231
299.9583191997585
299.9589860665087
299.9600195347517
299.9610819744831
299.9631647320242
299.9654497399898
299.967751808506
299.9710722540956
299.9739786662612
299.9771533144275
299.9815946419979
299.9856001327802
299.9902737173555
299.9960878064223
300.0015004043968
300.0078041074177
300.0147684560588
300.0207066794084
300.027865269145
300.0344472808177
300.0388439387178
300.0421299055067
300.0441601294176
300.0453259874254
300.045636876464
300.0451883426438
300.0444287802031
300.0425324667198
300.0401957891272
300.0375209760543
300.0340328843132
300.0302918865512
300.0265337954558
300.0219290012121
300.0168687933398
300.0117663176322
300.0062281598398
300.0004334752688
299.9938517010316
299.9874721995384
299.980815227004
299.9744278079714
299.9675420202116
299.9632130698864
299.9602080601302
299.9581974261851
299.9573828068596
299.9573791237322
299.9582783577785
299.9598912652995
299.9612120683868
299.9636119636921
299.9663111563203
299.9688843055078
299.972596117937
299.9757550422229
299.9792746727665
299.9839843525609
299.9881126031153
299.9927581043103
299.9983896934687
300.0041939416951
300.0104286234148
300.0167534809678
300.023709792137
300.0292923449284
300.0360098713417
300.038965094356
300.0425279189207
300.0439475690004
300.0444898155833
300.0446930810377
300.0440741695168
300.0426146600597
300.0406379997373
300.0376227802274
300.034682050369
300.0309740685423
300.0264830062084
300.0226096603667
300.0174610617557
300.0119962185223
300.0071373898014
300.0010065987531
299.9949457483201
299.9889816747695
299.982232150632
299.9762854535985
299.9701887876874
299.9641213618843
299.9604295952058
299.9582125007539
299.9563220545615
299.9558215110703
299.9563843237457
299.9573788400978
299.9585645846136
299.9608887730628
299.9634409509436
299.9662522426538
299.9699443732702
299.9730597638433
299.9767974854047
299.9811930976839
299.9850437234377
299.9900305125558
299.9952262962764
300.0003393511581
300.0064661552976
300.0124369636327
300.0186420712636
300.0250088798196
300.0316976055896
300.0360279484219
300.0400556124554
300.0422404521428
300.0436828001824
300.0444546167717
300.044161877225
300.0429297629123
300.041187431628
300.039310306395
300.0356487732295
300.0324149569219
300.0284430900131
300.0234153355044
300.019213768597
300.0141110638447
300.008174536276
300.0027787968166
299.9970982076429
299.9909011013313
299.9849888884324
299.9789873496709
299.9728399069623
299.966849293445
299.9622935972537
299.9597596545212
299.9575174969933
299.9561558819078
299.9560054183212
299.9564244362171
299.9581437212577
299.9596908220226
299.9621916029718
299.9653071491096
299.9682864136062
299.9724285355819
299.9759599379378
299.9798627511663
299.9847451107827
299.9889213945194
299.9934584448831
299.9988479804006
300.0039209218319
300.0095316199778
300.0157897423542
300.0210561683994
300.0273874058078
300.0328969706758
300.0371719090838
300.0398790628681
300.0422874533506
300.0430995021654
300.0435947851413
300.0429563641528
300.0412774314937
300.0400543539256
300.0371659953134
300.032910795542
300.0295766085087
300.0247431156413
300.0198724732358
300.01508148161
300.0091282576826
300.0038985896033
299.9978998189684
299.9919345084156
299.9859120404545
299.979763489578
299.9738983836682
299.9685186655102
299.9628459048903
299.9595030513003
299.957200172307
299.9551532568846
299.954513589809
299.954666805838
299.9553018592324
299.9568538144266
299.9585717759042
299.9614368307236
299.9648220965084
299.9681899477259
299.9725887521304
299.9767333530821
299.9809531743732
299.9859137397319
299.9907184065475
299.995214418363
300.000505732229
300.0058779860312
300.0111027834059
300.0168375627695
300.0225291875833
300.0287261696423
300.0325952380455
300.0368031331619
300.0394374528965
300.0411699592516
300.041942149079
300.042110538018
300.0415678805538
300.0399177655387
300.0372501348366
300.0344037026061
300.0303466002151
300.0257697784154
300.0212904695907
300.0159680715091
300.0106766425826
300.0046449030537
299.9987773295619
299.993018286383
299.9868589728011
299.9810093245106
299.9751267040701
299.9692292687562
299.9639154101031
299.9595337024514
299.9570520202245
299.9544996971634
299.953231731763
299.9530326963347
299.9536285603126
299.954816574599
299.9563731891606
299.9588301802156
299.9615221058456
299.9649634431339
299.9691448621625
299.9730943908193
299.9777584744689
299.9827157312612
299.9871863845832
299.9922156540919
299.9974349635764
300.0022684577997
300.0074428509227
300.013356389919
300.0174925384233
300.0235549166852
300.0283705168884
300.032582459661
300.0355435771057
300.0383589993631
300.0396759909581
300.0407418860904
300.0405191797356
300.0393063067581
300.0379336983436
300.0351023567168
300.0310925808354
300.02716969403
300.0218247275656
300.0168620999861
300.011468940703
300.0050482161467
299.9995295425396
299.9931463012138
299.9870567200288
299.9815412666121
299.9749885979465
299.9694965079452
299.9649746090906
299.9591754723869
299.9563823225036
299.9538783304393
299.9521570878241
299.9511476680034
299.9515129201919
299.9522654377531
299.9539709870781
299.9556437050751
299.9583393728632
299.9617746285146
299.9649806416883
299.9693255370947
299.9736931112225
299.978187945278
299.9833398574915
299.9883275808504
299.9933790859488
299.9985738947175
300.003866839207
300.0089565009642
300.0140510100532
300.0191652635511
300.0237796177036
300.028132959595
300.0311860160861
300.0341798904737
300.035715398107
300.0376934902123
300.0380340849937
300.0377652345455
300.0372419802474
300.0345418303523
300.0322225160781
300.0282036860243
300.0228286396003
300.0181286381398
300.012431823306
300.0061198255452
300.0000150763564
299.9936910235363
299.987269515505
299.9812549987673
299.975349203515
299.9693942911421
299.9640292700284
299.9590135690769
299.9549474268114
299.9525010800601
299.9500139776824
299.94873950116
299.9484217763953
299.9492094158053
299.9500135795053
299.9518196646223
299.9542372458937
299.9568779687442
299.9606249190232
299.964672208592
299.9688078242447
299.9738776048234
299.9787582930794
299.9835492948723
299.9885721923835
299.9937481096146
299.9991794629539
300.0040661875589
300.0092439348619
300.0143712290386
300.0186724983076
300.0235467061921
300.0268559486553
300.0289538946815
300.032117643148
300.0333299943815
300.0342419058608
300.034824603536
300.0341139907839
300.0336595461162
300.0311094388327
300.0281384356105
300.0239092255491
300.0187838022973
300.0132789035889
300.0069436860036
300.000206564604
299.9933834855263
299.9865180059923
299.9805206906825
299.9742091207718
299.9683579496141
299.963248124304
299.9586721729351
299.9539090682273
299.9513273325542
299.9488320804109
299.9469602201157
299.945794825785
299.9461149183152
299.9468172738019
299.9478131933526
299.9496322963104
299.9525348928349
299.9547010267048
299.9578537331357
299.9624259049318
299.966249608234
299.9715313008891
299.979913036324
299.984350360444
299.9949271890914
300.0005629177711
)
;

boundaryField
{
    inlet
    {
        type            fixedValue;
        value           uniform 300;
    }
    outlet
    {
        type            inletOutlet;
        inletValue      uniform 300;
        value           uniform 300.0036360561659;
    }
    frontAndBack
    {
        type            empty;
    }
}


// ************************************************************************* //
