/*--------------------------------*- C++ -*----------------------------------*\
| =========                 |                                                 |
| \\      /  F ield         | OpenFOAM: The Open Source CFD Toolbox           |
|  \\    /   O peration     | Version:  v2012                                 |
|   \\  /    A nd           | Website:  www.openfoam.com                      |
|    \\/     M anipulation  |                                                 |
\*---------------------------------------------------------------------------*/
FoamFile
{
    version     2.0;
    format      ascii;
    class       volVectorField;
    location    "0.012";
    object      UMean;
}
// * * * * * * * * * * * * * * * * * * * * * * * * * * * * * * * * * * * * * //

dimensions      [0 1 -1 0 0 0 0];


internalField   nonuniform List<vector> 
1000
(
(-2.905138383387153e-05 0 0)
(1.456761809329251e-05 0 0)
(2.357682722581825e-05 0 0)
(6.139864240066947e-05 0 0)
(9.879278482515278e-05 0 0)
(0.0001398121112482832 0 0)
(0.0001835359126153374 0 0)
(0.0002747076800128389 0 0)
(0.0003038371027085124 0 0)
(0.0003836148803971684 0 0)
(0.0004691990252645465 0 0)
(0.0005226286614328827 0 0)
(0.000589209731550461 0 0)
(0.0007008376406728814 0 0)
(0.0007296784501328902 0 0)
(0.000776482938155282 0 0)
(0.000897174777696794 0 0)
(0.0009341396179637996 0 0)
(0.0009378419702582053 0 0)
(0.001004306099222276 0 0)
(0.001060869545822509 0 0)
(0.001064258611227108 0 0)
(0.001031488201632407 0 0)
(0.001088733950524705 0 0)
(0.001090419590687807 0 0)
(0.001041108409292447 0 0)
(0.000980457561902867 0 0)
(0.001009048190699173 0 0)
(0.000971213194888653 0 0)
(0.0008446760802550723 0 0)
(0.00082416235830887 0 0)
(0.0008049698468637184 0 0)
(0.0006765485646012886 0 0)
(0.0005818637232142691 0 0)
(0.000595851552568063 0 0)
(0.0004901933520025624 0 0)
(0.0003704685020889865 0 0)
(0.0003562877895372378 0 0)
(0.0003137093546084172 0 0)
(0.0001970786187442487 0 0)
(0.0001501325647153601 0 0)
(0.0001343829900481406 0 0)
(7.551081831258147e-05 0 0)
(3.132827085830132e-05 0 0)
(6.152629171878291e-06 0 0)
(1.334981107890762e-05 0 0)
(5.016892280264792e-06 0 0)
(-2.097829590860175e-05 0 0)
(2.563617044603304e-05 0 0)
(5.776214920638486e-05 0 0)
(5.854072065457829e-05 0 0)
(0.0001215810571982231 0 0)
(0.0001890175160224185 0 0)
(0.0002028848470587098 0 0)
(0.000298063024181837 0 0)
(0.0003875679091494933 0 0)
(0.0004178810759509943 0 0)
(0.0004958011437044566 0 0)
(0.0005972437750104533 0 0)
(0.000626860657259384 0 0)
(0.0006988760195970541 0 0)
(0.000791672346248538 0 0)
(0.0008225771354118192 0 0)
(0.0008701977720993502 0 0)
(0.0009671451368651231 0 0)
(0.0009834834501979118 0 0)
(0.0009935158252816895 0 0)
(0.00106198512978779 0 0)
(0.001079502915565049 0 0)
(0.001050920828703522 0 0)
(0.001066244169995912 0 0)
(0.001066807956637605 0 0)
(0.001027118091483347 0 0)
(0.0009906161273586245 0 0)
(0.0009683542141792779 0 0)
(0.0009080334649830481 0 0)
(0.0008443003372400775 0 0)
(0.0007899221460222616 0 0)
(0.0007210908341251484 0 0)
(0.0006394176436686903 0 0)
(0.0005746188967011007 0 0)
(0.0005218995267396659 0 0)
(0.0004395866820047116 0 0)
(0.0003706266047447625 0 0)
(0.0003176784886154566 0 0)
(0.0002579580668336071 0 0)
(0.000188313801277404 0 0)
(0.0001433627404329315 0 0)
(0.0001007332095263308 0 0)
(5.632020322177684e-05 0 0)
(3.779820885581737e-05 0 0)
(-3.371113404639536e-07 0 0)
(-2.197850205561869e-06 0 0)
(9.342022815577823e-06 0 0)
(7.194987367265042e-06 0 0)
(2.245714899893914e-05 0 0)
(6.993401260579035e-05 0 0)
(0.0001036836423065613 0 0)
(0.0001464520133097108 0 0)
(0.0002144635378034321 0 0)
(0.0002728390854220846 0 0)
(0.0003424205624790648 0 0)
(0.0004219837326599649 0 0)
(0.0004763203185888424 0 0)
(0.0005406529900992371 0 0)
(0.0006268053318437982 0 0)
(0.0006796489082708624 0 0)
(0.000731809727194325 0 0)
(0.0008155600150200605 0 0)
(0.0008610816891888403 0 0)
(0.0009033383553206545 0 0)
(0.0009707067306322583 0 0)
(0.001007095781908045 0 0)
(0.001006396510238645 0 0)
(0.001062634848258538 0 0)
(0.001081828577632824 0 0)
(0.001043171725172802 0 0)
(0.001066643425274203 0 0)
(0.001065191183049845 0 0)
(0.0009897491442820375 0 0)
(0.0009676688004142271 0 0)
(0.0009565996782297323 0 0)
(0.0008539228694803751 0 0)
(0.0007889570669971933 0 0)
(0.0007670532685769614 0 0)
(0.0006617805476159839 0 0)
(0.0005771127409069873 0 0)
(0.0005595798234812597 0 0)
(0.0004732849384296203 0 0)
(0.0003741647411306417 0 0)
(0.0003589974822259791 0 0)
(0.0002913605291953679 0 0)
(0.0001956595729489513 0 0)
(0.0001751777323067519 0 0)
(0.0001431073723545704 0 0)
(5.635207203554415e-05 0 0)
(4.414804030378869e-05 0 0)
(5.059419343231705e-05 0 0)
(-1.911361621176283e-05 0 0)
(-6.33012430315174e-06 0 0)
(3.40892115704157e-05 0 0)
(7.939709725222595e-06 0 0)
(2.829350264873949e-05 0 0)
(0.0001143684426771337 0 0)
(0.0001266115377344219 0 0)
(0.0001686501841985688 0 0)
(0.000278438922821687 0 0)
(0.0003135931152542041 0 0)
(0.0003815205089061284 0 0)
(0.0004728867157142156 0 0)
(0.0005194384022371474 0 0)
(0.0005736614298077685 0 0)
(0.0006779587608860963 0 0)
(0.0007138273050820338 0 0)
(0.0007553478419790366 0 0)
(0.0008615527234787796 0 0)
(0.0008874839698511578 0 0)
(0.0009150996085661749 0 0)
(0.0009971005580678698 0 0)
(0.001020139730911984 0 0)
(0.001012906000315101 0 0)
(0.001072605856053011 0 0)
(0.001082041205897573 0 0)
(0.00103268481150714 0 0)
(0.00105881807177006 0 0)
(0.001046468032931768 0 0)
(0.0009693414610261124 0 0)
(0.0009407326606709769 0 0)
(0.000923813729207247 0 0)
(0.0008072897365531528 0 0)
(0.0007499544110183022 0 0)
(0.0007187450713517677 0 0)
(0.0006115550814562515 0 0)
(0.0005522536102279589 0 0)
(0.0005140743849059065 0 0)
(0.0004230761151062816 0 0)
(0.0003489290906574385 0 0)
(0.0003367624742054868 0 0)
(0.0002415023664361946 0 0)
(0.0001762618861265795 0 0)
(0.0001689686085433136 0 0)
(0.0001024371297652493 0 0)
(4.926261114655976e-05 0 0)
(5.401281719575075e-05 0 0)
(2.284335906499055e-05 0 0)
(-1.691092215931459e-05 0 0)
(2.590383706503186e-05 0 0)
(2.416170665240011e-05 0 0)
(1.490551625906601e-05 0 0)
(8.509384555847218e-05 0 0)
(0.0001277574381348009 0 0)
(0.0001501921867694935 0 0)
(0.0002391044996052786 0 0)
(0.0003167189438913057 0 0)
(0.00035825375803384 0 0)
(0.0004316759109415584 0 0)
(0.0005132818153342644 0 0)
(0.0005596948845990674 0 0)
(0.0006239910321046177 0 0)
(0.000706363045084678 0 0)
(0.0007472123775359978 0 0)
(0.000806923031280852 0 0)
(0.0008701701459937471 0 0)
(0.0009157412861901724 0 0)
(0.0009570923734603513 0 0)
(0.0009903127260051676 0 0)
(0.001027113995577912 0 0)
(0.001049105348659038 0 0)
(0.001059814653088933 0 0)
(0.001050868387141617 0 0)
(0.001063331221195168 0 0)
(0.001036850395171855 0 0)
(0.0009957120573096992 0 0)
(0.0009679971818833442 0 0)
(0.0009235204420224354 0 0)
(0.0008339529556655542 0 0)
(0.0007835643443501463 0 0)
(0.0007260256040480353 0 0)
(0.0006399589536133351 0 0)
(0.0005846183582555255 0 0)
(0.0005349524496242611 0 0)
(0.0004476503212334722 0 0)
(0.000388620473044435 0 0)
(0.0003499981463382115 0 0)
(0.0002721610088486169 0 0)
(0.0002119894737021492 0 0)
(0.0001830088524420713 0 0)
(0.0001266735977765799 0 0)
(8.279153917307118e-05 0 0)
(6.017335878652067e-05 0 0)
(3.476306436575093e-05 0 0)
(9.214530788121968e-06 0 0)
(2.170081537797602e-05 0 0)
(1.965720244474077e-05 0 0)
(2.718175599490366e-05 0 0)
(6.564936728999923e-05 0 0)
(0.0001090568599291023 0 0)
(0.0001463006850721759 0 0)
(0.0002188590479291519 0 0)
(0.0002918010270556769 0 0)
(0.0003461898514124691 0 0)
(0.0004131178864044729 0 0)
(0.0004834429288143921 0 0)
(0.0005455982217788831 0 0)
(0.000601012437503671 0 0)
(0.0006747781076851886 0 0)
(0.0007314304719062242 0 0)
(0.0007815948825325334 0 0)
(0.000845309568470808 0 0)
(0.0008938592899617102 0 0)
(0.0009330659598457341 0 0)
(0.0009754828367956941 0 0)
(0.001017991259734195 0 0)
(0.001025824550530512 0 0)
(0.001050109218622159 0 0)
(0.001060602035118975 0 0)
(0.00105602847126262 0 0)
(0.001034354927673816 0 0)
(0.001019568290962627 0 0)
(0.0009806771166765592 0 0)
(0.000927742986904405 0 0)
(0.0008695763216829434 0 0)
(0.0008067054762639836 0 0)
(0.0007354779247828279 0 0)
(0.0006709146954069705 0 0)
(0.0006111586123731116 0 0)
(0.0005478316307016598 0 0)
(0.0004760801871172488 0 0)
(0.0004232964925970342 0 0)
(0.0003623548263639316 0 0)
(0.0003063355339684271 0 0)
(0.0002379262176989284 0 0)
(0.0002013073452262201 0 0)
(0.0001542366683685124 0 0)
(0.0001050142263666978 0 0)
(7.126495853964433e-05 0 0)
(5.345783328371752e-05 0 0)
(2.981426967051838e-05 0 0)
(1.274051385914001e-05 0 0)
(2.536423226213326e-05 0 0)
(3.501604116443553e-05 0 0)
(5.336675896304582e-05 0 0)
(9.342058577793501e-05 0 0)
(0.0001366812886763584 0 0)
(0.0002031142522532523 0 0)
(0.0002641209908327833 0 0)
(0.0003365908452258916 0 0)
(0.0003879419165159492 0 0)
(0.0004687096459505099 0 0)
(0.0005211151536953702 0 0)
(0.0005895027472496249 0 0)
(0.0006455668529385815 0 0)
(0.0007066204057554807 0 0)
(0.0007639392721867402 0 0)
(0.0008153530729707012 0 0)
(0.0008708665936790688 0 0)
(0.00091060591428465 0 0)
(0.0009620849730794076 0 0)
(0.0009826011592876046 0 0)
(0.001022299960373905 0 0)
(0.001037517773670433 0 0)
(0.001045479193651554 0 0)
(0.001050185296289899 0 0)
(0.001045653689457082 0 0)
(0.001022742558342054 0 0)
(0.0009802016063467306 0 0)
(0.0009623270412504976 0 0)
(0.0008912310812734308 0 0)
(0.0008244139845306798 0 0)
(0.0007668528482882127 0 0)
(0.0007077315770764375 0 0)
(0.0006336566336877426 0 0)
(0.0005739333821473022 0 0)
(0.0005113872779964121 0 0)
(0.0004453618695998478 0 0)
(0.0003856837234960632 0 0)
(0.0003232803953429831 0 0)
(0.0002668625164614559 0 0)
(0.0002087733996163177 0 0)
(0.0001601399033604684 0 0)
(0.0001132542948970676 0 0)
(7.682523477336325e-05 0 0)
(4.134919238408108e-05 0 0)
(1.867712773963364e-05 0 0)
(1.135354839127541e-05 0 0)
(2.700330030159947e-06 0 0)
(1.476025588902507e-05 0 0)
(3.692335639000596e-05 0 0)
(7.364553806698106e-05 0 0)
(0.0001076850054572735 0 0)
(0.0001808039291000833 0 0)
(0.0002540466109590154 0 0)
(0.000315961171043886 0 0)
(0.0003986448625844443 0 0)
(0.0004781843412559727 0 0)
(0.0005476520845319664 0 0)
(0.0006279838832064603 0 0)
(0.0007161492089844404 0 0)
(0.0007781535351484647 0 0)
(0.0008512489132219651 0 0)
(0.0009409653506338374 0 0)
(0.001003739686275947 0 0)
(0.001063435857236943 0 0)
(0.001127912401243479 0 0)
(0.001198978302236672 0 0)
(0.001225163679531204 0 0)
(0.001277572401356225 0 0)
(0.001304401682284831 0 0)
(0.001318284455863124 0 0)
(0.001329222851136647 0 0)
(0.001325469281852936 0 0)
(0.001291312896309677 0 0)
(0.001258449293693619 0 0)
(0.001216531201925542 0 0)
(0.001149879291761568 0 0)
(0.001081592607721229 0 0)
(0.00100326267117027 0 0)
(0.0009287382804857295 0 0)
(0.0008471653068822361 0 0)
(0.0007744671591354047 0 0)
(0.0006876453764002933 0 0)
(0.0006163204908069406 0 0)
(0.0005362229586005018 0 0)
(0.0004569622330331928 0 0)
(0.000393833362140485 0 0)
(0.0003200236477051587 0 0)
(0.0002539390151236491 0 0)
(0.00019880413480354 0 0)
(0.0001525004714713397 0 0)
(0.0001072888268871208 0 0)
(7.809197486234403e-05 0 0)
(6.209448443194849e-05 0 0)
(4.514230836383553e-05 0 0)
(6.037670152890053e-05 0 0)
(7.649511847788173e-05 0 0)
(0.0001092920170805361 0 0)
(0.0001461012094496345 0 0)
(0.0002195292321675499 0 0)
(0.0002735504034266972 0 0)
(0.0003471997998712947 0 0)
(0.0004217454091136723 0 0)
(0.0004880655828611581 0 0)
(0.0005712572882948876 0 0)
(0.0006337471090552321 0 0)
(0.0007083483139336524 0 0)
(0.0007831933768531134 0 0)
(0.0008497564643568973 0 0)
(0.0009212636736696519 0 0)
(0.0009756067535995923 0 0)
(0.001050618833495063 0 0)
(0.001103559615074571 0 0)
(0.00114448440289005 0 0)
(0.001191483407504695 0 0)
(0.001229975241668642 0 0)
(0.001236219191580362 0 0)
(0.001252169934764344 0 0)
(0.001257684030972449 0 0)
(0.0012311908771153 0 0)
(0.001200473759915701 0 0)
(0.001164119654526871 0 0)
(0.001110701051645493 0 0)
(0.00102779396825439 0 0)
(0.0009736838449814305 0 0)
(0.0008941896774291063 0 0)
(0.000802911491566408 0 0)
(0.000730673753480342 0 0)
(0.0006592607548336785 0 0)
(0.0005588634539441367 0 0)
(0.0004975548002055782 0 0)
(0.0004263588064604509 0 0)
(0.00033437228564772 0 0)
(0.0002839926492231194 0 0)
(0.0002169623046710645 0 0)
(0.0001531049716826962 0 0)
(9.511225834325011e-05 0 0)
(6.320028799181673e-05 0 0)
(2.423183457071408e-05 0 0)
(-8.353814918765067e-06 0 0)
(-1.501799755448234e-05 0 0)
(-7.569266399986396e-06 0 0)
(-7.10329048456231e-06 0 0)
(2.714107548024666e-05 0 0)
(6.464355819453359e-05 0 0)
(9.971533619413188e-05 0 0)
(0.0001877519221850535 0 0)
(0.0002386968992515561 0 0)
(0.0003092100414960586 0 0)
(0.0003914286161919406 0 0)
(0.0004624682903062756 0 0)
(0.0005281567786982507 0 0)
(0.0006066520177808461 0 0)
(0.0006776018398644868 0 0)
(0.0007411267243637501 0 0)
(0.000813099035967943 0 0)
(0.0008783797567854572 0 0)
(0.0009308632073233339 0 0)
(0.0009898348843239914 0 0)
(0.001050197026799307 0 0)
(0.001079686109976867 0 0)
(0.001120392718299473 0 0)
(0.001144644927635531 0 0)
(0.001157514598517464 0 0)
(0.001161197196766458 0 0)
(0.001147681873574107 0 0)
(0.001121757381906398 0 0)
(0.001088896068513828 0 0)
(0.001041165829114045 0 0)
(0.0009721281191984968 0 0)
(0.0009024839692713123 0 0)
(0.0008380312668044515 0 0)
(0.0007429363494517151 0 0)
(0.0006687743141746958 0 0)
(0.0005951656460602723 0 0)
(0.000503262340307781 0 0)
(0.0004233041654782672 0 0)
(0.0003618115836532612 0 0)
(0.0002785548880320839 0 0)
(0.0002085557944357588 0 0)
(0.0001468270270962286 0 0)
(9.20852496315209e-05 0 0)
(3.070643503957533e-05 0 0)
(-1.487959398693284e-05 0 0)
(-4.423578834268702e-05 0 0)
(-8.696247048321138e-05 0 0)
(-9.474407589913256e-05 0 0)
(-0.000103966965331075 0 0)
(-9.618255641466086e-05 0 0)
(-7.615703687882436e-05 0 0)
(-4.22465399705146e-05 0 0)
(-3.222269212276933e-06 0 0)
(5.771661661027394e-05 0 0)
(0.0001247769548913448 0 0)
(0.0001869044785368349 0 0)
(0.0002643151055860128 0 0)
(0.0003362361948097656 0 0)
(0.0004170517189759257 0 0)
(0.0004850977074341319 0 0)
(0.0005490119067539716 0 0)
(0.0006253153429227004 0 0)
(0.000689638740947413 0 0)
(0.0007519190701032599 0 0)
(0.0008125702842579961 0 0)
(0.0008707145476090622 0 0)
(0.0009154879751575309 0 0)
(0.0009664583066126737 0 0)
(0.0009971011100609673 0 0)
(0.001027654206645497 0 0)
(0.001042064562563093 0 0)
(0.001039966832508837 0 0)
(0.001049891171343342 0 0)
(0.001025901962949415 0 0)
(0.0009874246573100195 0 0)
(0.0009458421434539086 0 0)
(0.0009002542979079172 0 0)
(0.000817985222117687 0 0)
(0.0007430916252646885 0 0)
(0.0006836841912657071 0 0)
(0.0005785678330986647 0 0)
(0.0005114638599604029 0 0)
(0.0004261645535905482 0 0)
(0.0003410580550795859 0 0)
(0.0002637650816111716 0 0)
(0.0001973270148866493 0 0)
(0.0001153382645850627 0 0)
(5.552500835358776e-05 0 0)
(-3.590657137511498e-07 0 0)
(-6.570561412715281e-05 0 0)
(-0.0001126323122957611 0 0)
(-0.0001440675110083845 0 0)
(-0.0001866036832784932 0 0)
(-0.0002111910566905979 0 0)
(-0.0002145444662711693 0 0)
(-0.0002138548591291072 0 0)
(-0.0002096632244518484 0 0)
(-0.0001758499274127073 0 0)
(-0.0001352434131430787 0 0)
(-9.697086587638364e-05 0 0)
(-3.058998298300608e-05 0 0)
(4.631475488575928e-05 0 0)
(0.0001079210835106524 0 0)
(0.0001849314867351032 0 0)
(0.0002696585037418279 0 0)
(0.0003222458901781806 0 0)
(0.0004025915097707798 0 0)
(0.0004856815382445136 0 0)
(0.0005313896821394964 0 0)
(0.0006033854637124815 0 0)
(0.0006831574254430642 0 0)
(0.0007139679156167493 0 0)
(0.0007715929092838863 0 0)
(0.0008311813067765972 0 0)
(0.0008579811711163273 0 0)
(0.0008753424362655337 0 0)
(0.0009228070551408045 0 0)
(0.0009125229400499793 0 0)
(0.0009115014251024141 0 0)
(0.0009132800706218944 0 0)
(0.000886975877946736 0 0)
(0.0008320169125076978 0 0)
(0.0007972985908056986 0 0)
(0.000724764991835952 0 0)
(0.0006548762490836354 0 0)
(0.0005934266418901452 0 0)
(0.0004921197652057656 0 0)
(0.0004189318633437714 0 0)
(0.0003411279266230566 0 0)
(0.0002595121826537779 0 0)
(0.0001743364655070619 0 0)
(8.496142177345412e-05 0 0)
(4.537040175429269e-05 0 0)
(-3.442332455605893e-05 0 0)
(-0.0001201389887006196 0 0)
(-0.0001516902770346162 0 0)
(-0.0001972125027218352 0 0)
(-0.0002642563451080941 0 0)
(-0.0002903572704781653 0 0)
(-0.0003039932637502678 0 0)
(-0.0003465344707257375 0 0)
(-0.0003398419166279557 0 0)
(-0.0003200705093282828 0 0)
(-0.0003137976767606439 0 0)
(-0.0003001393117338756 0 0)
(-0.0002233744821335954 0 0)
(-0.0001795993429754326 0 0)
(-0.000141853749260438 0 0)
(-3.605200922162271e-05 0 0)
(2.179358418975609e-05 0 0)
(9.074809526111066e-05 0 0)
(0.0001741162241225246 0 0)
(0.0002467286919654131 0 0)
(0.000299105501515576 0 0)
(0.0003807212187785993 0 0)
(0.0004462530879956071 0 0)
(0.0005001171596672976 0 0)
(0.0005553322236863465 0 0)
(0.0006189295769607878 0 0)
(0.0006576568922166217 0 0)
(0.0006903853180378916 0 0)
(0.0007341921252628203 0 0)
(0.0007594626842852245 0 0)
(0.0007545223801872997 0 0)
(0.0007610537761013952 0 0)
(0.0007841935691222932 0 0)
(0.0007417907257200965 0 0)
(0.0006930414676658307 0 0)
(0.000679846146572242 0 0)
(0.0006225447674130834 0 0)
(0.0005228407788647259 0 0)
(0.0004719540548445824 0 0)
(0.0004069427236048812 0 0)
(0.0002979102589244419 0 0)
(0.0002242323072412739 0 0)
(0.000159999641580512 0 0)
(3.982897608128204e-05 0 0)
(-2.028455046168924e-05 0 0)
(-6.735114221982188e-05 0 0)
(-0.0001759729696866085 0 0)
(-0.0002335180324396032 0 0)
(-0.0002565983272240468 0 0)
(-0.0003485153470909651 0 0)
(-0.0003860486915633388 0 0)
(-0.0003940430933002205 0 0)
(-0.0004536629493428656 0 0)
(-0.0004775919951293332 0 0)
(-0.000455612709683 0 0)
(-0.0004648257923481593 0 0)
(-0.0004700569072862352 0 0)
(-0.0004158042419203517 0 0)
(-0.0003861493202401124 0 0)
(-0.0003564394656939897 0 0)
(-0.0002700347082682529 0 0)
(-0.000203181772949127 0 0)
(-0.0001539616359975169 0 0)
(-5.284127104592701e-05 0 0)
(1.537626142023599e-05 0 0)
(7.958427867298664e-05 0 0)
(0.0001490691259330445 0 0)
(0.0002412749080675021 0 0)
(0.0002846565513245257 0 0)
(0.0003522239122936283 0 0)
(0.0004200759531856789 0 0)
(0.000468423472934938 0 0)
(0.0005140934690921945 0 0)
(0.0005615133230768074 0 0)
(0.0005955159786142866 0 0)
(0.0006120026266734395 0 0)
(0.0006303280657804707 0 0)
(0.0006578112583463352 0 0)
(0.0006312663472287375 0 0)
(0.0006268043418553857 0 0)
(0.0006101259588756674 0 0)
(0.0005689273557120665 0 0)
(0.0005076915100405547 0 0)
(0.0004556961621321244 0 0)
(0.0003927126414950074 0 0)
(0.0003043222845029211 0 0)
(0.000230942505165466 0 0)
(0.000157709261662712 0 0)
(5.574979130043584e-05 0 0)
(-1.879554935721996e-05 0 0)
(-8.995325732571862e-05 0 0)
(-0.0001867223763570387 0 0)
(-0.0002402356067686017 0 0)
(-0.0003056314614511867 0 0)
(-0.0003742715678140028 0 0)
(-0.0004239554316077868 0 0)
(-0.0004683178241835894 0 0)
(-0.0005043716992073673 0 0)
(-0.0005448478298738863 0 0)
(-0.0005609236793941981 0 0)
(-0.0005651899190206736 0 0)
(-0.0005874577361928766 0 0)
(-0.0005570306732275542 0 0)
(-0.0005363931028546969 0 0)
(-0.000515276857036083 0 0)
(-0.0004699101066364586 0 0)
(-0.0004045933432979276 0 0)
(-0.0003430304024935366 0 0)
(-0.0002802151546383254 0 0)
(-0.0001865319747939967 0 0)
(-0.0001151898440197785 0 0)
(-5.260611961968981e-05 0 0)
(4.089722670626838e-05 0 0)
(0.0001050023145156371 0 0)
(0.0001598235204327707 0 0)
(0.0002434890057349385 0 0)
(0.0003066714617412233 0 0)
(0.0003475992627554748 0 0)
(0.0004118611710763204 0 0)
(0.0004561184098060461 0 0)
(0.0004887317086015959 0 0)
(0.0005189831651477303 0 0)
(0.0005482968095601164 0 0)
(0.0005508972502344998 0 0)
(0.0005561786682804499 0 0)
(0.0005630408747905527 0 0)
(0.0005277923680219011 0 0)
(0.0004989329086536909 0 0)
(0.0004779090427820849 0 0)
(0.0003958337611214498 0 0)
(0.0003423704403801183 0 0)
(0.0002875042449461089 0 0)
(0.0001931968489859602 0 0)
(0.0001195431271697212 0 0)
(4.180792838305261e-05 0 0)
(-4.856595576453664e-05 0 0)
(-0.0001209551177522886 0 0)
(-0.0002043977498884425 0 0)
(-0.0002801339655258063 0 0)
(-0.0003320592485383948 0 0)
(-0.0003962484540196439 0 0)
(-0.0004584227244240632 0 0)
(-0.000498595748591482 0 0)
(-0.000532216411937799 0 0)
(-0.0005687193506930935 0 0)
(-0.0005991332240464132 0 0)
(-0.0005979713750729021 0 0)
(-0.000602999239814345 0 0)
(-0.0006131358985992973 0 0)
(-0.00056601128125435 0 0)
(-0.0005519565877781251 0 0)
(-0.0005162136967426627 0 0)
(-0.0004522681360645321 0 0)
(-0.0003953127324007711 0 0)
(-0.0003269869653822982 0 0)
(-0.0002428721213292451 0 0)
(-0.0001628132485826446 0 0)
(-9.395075130557172e-05 0 0)
(-1.764806643612222e-06 0 0)
(5.686235780115138e-05 0 0)
(0.0001323812082451034 0 0)
(0.0002142200044205458 0 0)
(0.0002740348377692503 0 0)
(0.0003286391559278735 0 0)
(0.0004085334963620717 0 0)
(0.0004380134009340486 0 0)
(0.0004764852291757349 0 0)
(0.0005264432491452275 0 0)
(0.0005553144982294614 0 0)
(0.0005415046054289485 0 0)
(0.0005847548999029845 0 0)
(0.0005889950475111718 0 0)
(0.0005400248156305532 0 0)
(0.0005486328939808256 0 0)
(0.0005155490887008849 0 0)
(0.0004502833533307504 0 0)
(0.0003983737305134027 0 0)
(0.0003547784883243677 0 0)
(0.0002587883387154867 0 0)
(0.0001878532102638267 0 0)
(0.000117000757390698 0 0)
(3.040360712486483e-05 0 0)
(-5.396388128641406e-05 0 0)
(-0.0001412769139989893 0 0)
(-0.0001895493210289871 0 0)
(-0.0002838467053663176 0 0)
(-0.0003419494635737752 0 0)
(-0.0003781565787740967 0 0)
(-0.0004383071400334073 0 0)
(-0.0004937537550227531 0 0)
(-0.0005113562354211287 0 0)
(-0.000525640439275691 0 0)
(-0.0005706575179601412 0 0)
(-0.0005627844092205923 0 0)
(-0.0005466413282868262 0 0)
(-0.0005386096037504199 0 0)
(-0.0005256289153611983 0 0)
(-0.0004765080288821567 0 0)
(-0.0004216677513736239 0 0)
(-0.0003921917862505349 0 0)
(-0.0002997023915081681 0 0)
(-0.0002283881908030318 0 0)
(-0.0001636743559564216 0 0)
(-8.750652970748291e-05 0 0)
(2.294174465531725e-05 0 0)
(7.003432267756732e-05 0 0)
(0.0001367812751437526 0 0)
(0.0002301603918835348 0 0)
(0.0002988764004230992 0 0)
(0.000344540768670791 0 0)
(0.000410390739407835 0 0)
(0.0004783851631911584 0 0)
(0.0005067297297025285 0 0)
(0.0005275743383941985 0 0)
(0.0005910791838794905 0 0)
(0.0005938117892481555 0 0)
(0.0005891736652987744 0 0)
(0.0006156730636311618 0 0)
(0.0006206170094494094 0 0)
(0.0005587341565362043 0 0)
(0.0005705669505108493 0 0)
(0.000529602576792499 0 0)
(0.0004466266405749667 0 0)
(0.0004249424901722283 0 0)
(0.0003508316293942047 0 0)
(0.0002551199888737539 0 0)
(0.0002008196868380616 0 0)
(0.0001256892957011092 0 0)
(2.649426222102956e-05 0 0)
(-3.511701016617158e-05 0 0)
(-0.0001244331400922444 0 0)
(-0.0001906849492252537 0 0)
(-0.0002550421329314689 0 0)
(-0.0003100614805663797 0 0)
(-0.0003639226750145658 0 0)
(-0.0003972835091253544 0 0)
(-0.0004391555263396165 0 0)
(-0.0004672369880071859 0 0)
(-0.0004826299729903524 0 0)
(-0.000488280296010209 0 0)
(-0.0004863369856911904 0 0)
(-0.0004717431818056405 0 0)
(-0.0004496999215946497 0 0)
(-0.0004026330703304307 0 0)
(-0.000373919830411825 0 0)
(-0.0003145975737058167 0 0)
(-0.0002454711320215313 0 0)
(-0.0001744933843773419 0 0)
(-0.0001047909470678413 0 0)
(-4.397356026684593e-07 0 0)
(5.513475647947764e-05 0 0)
(0.0001461653656766796 0 0)
(0.000239838208101757 0 0)
(0.0002895964751775356 0 0)
(0.0003756109810026193 0 0)
(0.0004514629260681502 0 0)
(0.0005085372094238164 0 0)
(0.0005661437838387711 0 0)
(0.0006290759826164478 0 0)
(0.0006584246913179394 0 0)
(0.0006984291126957823 0 0)
(0.0007250560102422429 0 0)
(0.0007243932448498765 0 0)
(0.000759552148334862 0 0)
(0.0007431239000333332 0 0)
(0.0007364887958043614 0 0)
(0.0007213952885481362 0 0)
(0.0006932349293511577 0 0)
(0.0006349896040669084 0 0)
(0.0006006158456685851 0 0)
(0.0005351523874791481 0 0)
(0.000464153275225087 0 0)
(0.0004007026985949452 0 0)
(0.0003213899169155466 0 0)
(0.0002410638803721828 0 0)
(0.0001663862234864872 0 0)
(8.658297450341665e-05 0 0)
(1.866898046721654e-05 0 0)
(-5.821011393431213e-05 0 0)
(-0.0001141254332136985 0 0)
(-0.0001549732032454001 0 0)
(-0.0002019726202409835 0 0)
(-0.0002471546566875489 0 0)
(-0.0002579728258688229 0 0)
(-0.0002910341027745206 0 0)
(-0.0003011278823649871 0 0)
(-0.0002916244467507711 0 0)
(-0.0002734995250560719 0 0)
(-0.0002660776344556469 0 0)
(-0.0002275184964484132 0 0)
(-0.000167485583147832 0 0)
(-0.0001369167959856206 0 0)
(-7.983960126079318e-05 0 0)
(2.662953615274186e-05 0 0)
(7.666113418249329e-05 0 0)
(0.000156073925936734 0 0)
(0.0002715884829230691 0 0)
(0.0003271409474493514 0 0)
(0.0004069247349135862 0 0)
(0.0005076609378725403 0 0)
(0.0005803683113790809 0 0)
(0.0006260195370019105 0 0)
(0.0007333686503325444 0 0)
(0.0007748137908231958 0 0)
(0.0008456577263461541 0 0)
(0.0008785647963370068 0 0)
(0.0009492116969873987 0 0)
(0.0009497820338367252 0 0)
(0.0009782821059332572 0 0)
(0.0009938462559606646 0 0)
(0.00101595680749451 0 0)
(0.0009822081265163948 0 0)
(0.0009859959259020711 0 0)
(0.0009757618330219541 0 0)
(0.0009251225498750728 0 0)
(0.0008750921589500959 0 0)
(0.000853443162518134 0 0)
(0.0007641432498481291 0 0)
(0.0007059143354155304 0 0)
(0.000656548705592465 0 0)
(0.0005714454921094824 0 0)
(0.0004655884559089802 0 0)
(0.0004341562835490027 0 0)
(0.0003456355249013652 0 0)
(0.0002477182337349811 0 0)
(0.0002304528644580819 0 0)
(0.0001573585723250749 0 0)
(9.764588329814993e-05 0 0)
(8.89674585665627e-05 0 0)
(5.822024951443368e-05 0 0)
(2.053468122368898e-05 0 0)
(2.186987521722628e-05 0 0)
(1.762096281386548e-05 0 0)
(3.480736000420226e-05 0 0)
(5.169041784324238e-05 0 0)
(9.650040129795166e-05 0 0)
(0.0001287525174118766 0 0)
(0.0001871993414717463 0 0)
(0.0002542783818798302 0 0)
(0.0003068726589961745 0 0)
(0.0004064093947559603 0 0)
(0.0004753159379465595 0 0)
(0.0005677182700682975 0 0)
(0.0006673153709428559 0 0)
(0.0007279462271664539 0 0)
(0.0008292880569221436 0 0)
(0.000907684010323843 0 0)
(0.0009727357064179115 0 0)
(0.001066657946229369 0 0)
(0.001128927864971877 0 0)
(0.001191950537323819 0 0)
(0.001247532558850809 0 0)
(0.001307235728469588 0 0)
(0.001336216452008972 0 0)
(0.001375881968749846 0 0)
(0.001373779182754866 0 0)
(0.001398811633880095 0 0)
(0.001404044313316929 0 0)
(0.001392511129826495 0 0)
(0.001380779554372251 0 0)
(0.001356063247698035 0 0)
(0.0013121645409679 0 0)
(0.001285869920879664 0 0)
(0.001219694856237358 0 0)
(0.001167092861212266 0 0)
(0.001109704163539783 0 0)
(0.001044709992769642 0 0)
(0.000961901533157509 0 0)
(0.0008960400666557226 0 0)
(0.0008252019605507253 0 0)
(0.0007452181133749468 0 0)
(0.0006889241956122785 0 0)
(0.0006531753488911586 0 0)
(0.0005792380574539197 0 0)
(0.0005336987393071937 0 0)
(0.0005441020679333929 0 0)
(0.0005129225591723699 0 0)
(0.0004693893287862812 0 0)
(0.0005078370909323778 0 0)
(0.0005089444286759413 0 0)
(0.0005158303546170519 0 0)
(0.0005704795485158826 0 0)
(0.0006240743395119914 0 0)
(0.0006248707648569509 0 0)
(0.000736688133908483 0 0)
(0.0008069541348776261 0 0)
(0.0008545020374435325 0 0)
(0.0009554057613440824 0 0)
(0.001073420365594412 0 0)
(0.001115191062528011 0 0)
(0.001246153429179923 0 0)
(0.001334366986410855 0 0)
(0.001388758134242669 0 0)
(0.001480707339668936 0 0)
(0.0016105252199002 0 0)
(0.001627023202492266 0 0)
(0.001733298519716524 0 0)
(0.001799956091253037 0 0)
(0.001829039155554694 0 0)
(0.001909810574074011 0 0)
(0.001939156349857343 0 0)
(0.001964327778587511 0 0)
(0.0019679835366969 0 0)
(0.002000624348449876 0 0)
(0.001994552161363044 0 0)
(0.001980384190454491 0 0)
(0.001971626035349513 0 0)
(0.001957348678545824 0 0)
(0.001885075942968819 0 0)
(0.001876967917002856 0 0)
(0.00183555336442796 0 0)
(0.001752430873383794 0 0)
(0.001701555484770519 0 0)
(0.001660323400984604 0 0)
(0.001587988863432206 0 0)
(0.001481950159187027 0 0)
(0.001463973552651697 0 0)
(0.001357435015201964 0 0)
(0.001328587735935304 0 0)
(0.00129820221884543 0 0)
(0.001212037281114931 0 0)
(0.00119998725175824 0 0)
(0.001213267688591019 0 0)
(0.001157666353966278 0 0)
(0.001176973695978636 0 0)
(0.001212141618196573 0 0)
(0.001201233935962166 0 0)
(0.001253119730390731 0 0)
(0.001302908503997565 0 0)
(0.00136273295926492 0 0)
(0.001399766413956374 0 0)
(0.001493162770552463 0 0)
(0.001574337010390306 0 0)
(0.001657279740907838 0 0)
(0.001760542243466728 0 0)
(0.001827581833511525 0 0)
(0.001944317717895905 0 0)
(0.002080362159902969 0 0)
(0.002077815260900388 0 0)
(0.002214056825224393 0 0)
(0.002346613421458468 0 0)
(0.002323027095431893 0 0)
(0.002523759412780581 0 0)
(0.002552102959603019 0 0)
(0.002538639714217759 0 0)
(0.002726200721316318 0 0)
(0.002755494698785915 0 0)
(0.002640070687867758 0 0)
(0.002822626932966952 0 0)
(0.002856547358310083 0 0)
)
;

boundaryField
{
    inlet
    {
        type            calculated;
        value           uniform (-2.905138383387153e-05 0 0);
    }
    outlet
    {
        type            calculated;
        value           uniform (0.002856547358310083 0 0);
    }
    frontAndBack
    {
        type            empty;
    }
}


// ************************************************************************* //
