/*--------------------------------*- C++ -*----------------------------------*\
| =========                 |                                                 |
| \\      /  F ield         | OpenFOAM: The Open Source CFD Toolbox           |
|  \\    /   O peration     | Version:  v2012                                 |
|   \\  /    A nd           | Website:  www.openfoam.com                      |
|    \\/     M anipulation  |                                                 |
\*---------------------------------------------------------------------------*/
FoamFile
{
    version     2.0;
    format      ascii;
    class       volScalarField;
    location    "0.0175";
    object      p;
}
// * * * * * * * * * * * * * * * * * * * * * * * * * * * * * * * * * * * * * //

dimensions      [1 -1 -2 0 0 0 0];


internalField   nonuniform List<scalar> 
1000
(
101339.1741825332
101336.716625702
101343.5630083959
101349.0244050211
101355.1373842145
101360.6885603643
101365.5125478792
101369.6701673445
101373.1980284549
101375.5783486908
101376.3578394732
101376.3937419522
101376.025561816
101374.9460743032
101372.863321057
101369.7036723146
101365.5858401518
101360.7000110082
101355.2065485537
101349.2150738149
101342.813690967
101336.0994665102
101329.187485342
101322.2025751068
101315.2687911423
101308.5065204771
101302.0295144041
101295.9253826031
101290.2287092834
101284.9518354052
101280.268457019
101276.7439203786
101274.9775277501
101274.6351455191
101274.7063430589
101275.0817445953
101276.0002985653
101277.6886535909
101280.3303226394
101284.0021274315
101288.6463935512
101294.0960637764
101300.1388114803
101306.5792152399
101313.2681803271
101320.09719733
101326.9758375455
101333.8130398629
101340.5143011752
101346.9985360333
101353.2203480428
101359.1606549668
101364.7539411972
101369.7082136322
101373.3087677027
101374.9714381721
101375.3120281367
101375.3292117638
101375.0531919731
101374.3331772969
101372.9692019798
101370.7753941032
101367.6197119164
101363.4595859655
101358.3559536966
101352.4609446565
101345.981402601
101339.1330274287
101332.104621984
101325.0426527197
101318.0530404404
101311.2101451414
101304.5616056597
101298.1295338073
101291.9371542973
101286.1094432529
101281.0798440773
101277.6560284446
101276.2063400027
101275.944807607
101275.9828271506
101276.2886518292
101277.0095710403
101278.311385148
101280.3601055305
101283.288658234
101287.1654881213
101291.9743367404
101297.6125654471
101303.9085698408
101310.6534700232
101317.6377182055
101324.6823350481
101331.657225681
101338.4841865827
101345.1311934497
101351.5988711186
101357.8729254271
101363.8241230899
101369.048562872
101372.7428174356
101374.3736718266
101374.7256317664
101374.7903168404
101374.5864529707
101374.0319870565
101372.9568431628
101371.2032649267
101368.6334370326
101365.1528464095
101360.7294841759
101355.4070299113
101349.3055321218
101342.6061419578
101335.5226775413
101328.2664906284
101321.0135862063
101313.8845851679
101306.9415222957
101300.2017610637
101293.6904797275
101287.5660645115
101282.3154055907
101278.7761790682
101277.2968803976
101277.0064294145
101276.9923235587
101277.2289837005
101277.8141361453
101278.887285063
101280.5907807766
101283.053769975
101286.3692298456
101290.5767102872
101295.6510972157
101301.4998480898
101307.971124368
101314.8735593875
101322.0056032724
101329.1878793146
101336.2873600163
101343.227509763
101349.9823754113
101356.5267221004
101362.7202009894
101368.1587392843
101372.0661920862
101373.8609577861
101374.2870494951
101374.3950532141
101374.2579307009
101373.8317267758
101372.9650711608
101371.5166092206
101369.3563834816
101366.3794673889
101362.5203510247
101357.767417877
101352.1722860933
101345.8496970307
101338.9663565532
101331.7186444119
101324.3020605538
101316.8822756522
101309.5779351437
101302.4597900148
101295.5924841312
101289.1607417984
101283.6553044679
101279.9038588359
101278.301278499
101277.9516250997
101277.8864971505
101278.0623011334
101278.5313603208
101279.4269122195
101280.8730977266
101282.9898121305
101285.8750962199
101289.5906600947
101294.1509158932
101299.5160440632
101305.590942371
101312.2322891054
101319.2654095465
101326.5097216332
101333.8048727218
101341.0287000705
101348.1043655096
101354.9687366522
101361.4600736545
101367.1729487247
101371.3686330768
101373.4100463954
101373.930977344
101374.0705188632
101373.995470434
101373.6729582428
101372.972217217
101371.7628966007
101369.9233154698
101367.3479707709
101363.9570513139
101359.7092255186
101354.6124092389
101348.7288780859
101342.1732332384
101335.1016694287
101327.6915538249
101320.1167985134
101312.5285588276
101305.0456162209
101297.7807906861
101290.9584160313
101285.0978078609
101281.0398732893
101279.2375513233
101278.8163507085
101278.7168178706
101278.8384052039
101279.2112543746
101279.9579968769
101281.1933149931
101283.0291600472
101285.5631889339
101288.867177595
101292.9773525928
101297.8872008575
101303.54340873
101309.8467100322
101316.6600092645
101323.824953154
101331.1828154022
101338.5917020704
101345.9384842777
101353.1249467173
101359.9676165567
101366.0418104487
101370.6111150147
101372.9787576262
101373.6279321169
101373.7852853358
101373.7689963862
101373.5323748038
101372.9694705278
101371.95817711
101370.3835728542
101368.1418640475
101365.1468075866
101361.3405258351
101356.7033895289
101351.2601922159
101345.0821985183
101338.2835831581
101331.0096849865
101323.4192444355
101315.6692064479
101307.9054537687
101300.2767132676
101293.0368455918
101286.7344375944
101282.2480370934
101280.1362788179
101279.6088163539
101279.4862631042
101279.5581454474
101279.8511642556
101280.4733288404
101281.5318934199
101283.1317778953
101285.3685342416
101288.3191070733
101292.0330664273
101296.5259483594
101301.7745070801
101307.7146913616
101314.2445193309
101321.2341439626
101328.5413655383
101336.0252677858
101343.5557933321
101351.0107066324
101358.1958790484
101364.6752302156
101369.6991380684
101372.5017296383
101373.3531765081
101373.5192821971
101373.5586354286
101373.389314007
101372.9418010554
101372.0977638086
101370.7486940502
101368.7924692994
101366.1392985896
101362.7213858025
101358.5012588278
101353.4773472413
101347.6875770522
101341.2097706791
101334.1557144826
101326.659453889
101318.8671478859
101310.9316850287
101303.019036725
101295.3909435878
101288.6053937244
101283.5879235976
101281.0411490994
101280.3427497574
101280.2046739714
101280.2268500084
101280.4502564013
101280.9636419124
101281.8682347785
101283.2636404073
101285.2432841249
101287.8865176465
101291.2507797643
101295.3660745626
101300.2306109974
101305.8075630007
101312.0249344342
101318.7810496575
101325.9553592977
101333.418466407
101341.0376966257
101348.678751657
101356.1516432552
101363.033796537
101368.563453646
101371.9083451055
101373.0586615611
101373.2608286027
101373.3354932352
101373.2223053718
101372.8731295911
101372.1731345001
101371.0187562626
101369.3104562215
101366.9567649236
101363.8835583684
101360.0413827173
101355.4099722652
101350.0019419888
101343.8651621145
101337.0809680112
101329.7570934164
101322.020943692
101314.0184848151
101305.9197429726
101297.978753417
101290.7286034521
101285.1148796766
101281.9950990815
101281.0225361303
101280.8627938874
101280.8398323688
101281.004301967
101281.4226466788
101282.1908888518
101283.4039349685
101285.1542737844
101287.523171503
101290.5733225527
101294.3444932522
101298.8501964744
101304.0742195956
101309.9688017259
101316.4570498945
101323.4402673138
101330.8053489298
101338.426936318
101346.1682172064
101353.8500060523
101361.0902408241
101367.1367775207
101371.0901468229
101372.6632928584
101372.9479521449
101373.0394818448
101372.9746961682
101372.7090220411
101372.1341143749
101371.1506950919
101369.6616226616
101367.5737743198
101364.8079978351
101361.3066568864
101357.0367352846
101351.9923805671
101346.1980191669
101339.7093257621
101332.609513948
101325.0050590394
101317.0280031819
101308.8422284648
101300.6810009621
101293.0182417047
101286.7718324192
101282.9514909237
101281.5672625484
101281.3341125047
101281.2803713745
101281.3943973306
101281.7254003886
101282.3693073765
101283.4159357925
101284.9559947413
101287.0724343108
101289.8322107098
101293.2825125898
101297.4484550362
101302.3299130355
101307.8988087701
101314.0993280489
101320.8525846775
101328.0625782099
101335.6165396747
101343.381536776
101351.1887732025
101358.7132501398
101365.2561435541
101369.8621479672
101371.9984194015
101372.4564073689
101372.5513458916
101372.5267221954
101372.3317511934
101371.8674777983
101371.0398691735
101369.7553992324
101367.9200876162
101365.4508657406
101362.2845356621
101358.3799605888
101353.7191364233
101348.3101044692
101342.1893604168
101335.4204823007
101328.0911908698
101320.3166333719
101312.248153927
101304.0979810468
101296.2728249093
101289.6129522546
101285.2069322781
101283.3713260748
101283.0122943428
101282.943361171
101283.0174054901
101283.2755250717
101283.8086324968
101284.6998434208
101286.03625101
101287.9012542663
101290.3641777785
101293.4762736124
101297.2700119989
101301.7569836433
101306.9247464836
101312.7353990769
101319.1281007558
101326.0237910664
101333.3251316919
101340.9113148446
101348.6287095844
101356.2165208168
101363.0791767933
101368.2512427092
101371.0198062475
101371.7783229226
101371.8711885684
101371.8843198465
101371.751639569
101371.3898073876
101370.7102663388
101369.6239362081
101368.0375676045
101365.8644071393
101363.034974203
101359.4997233399
101355.2288564491
101350.2141778106
101344.4721924554
101338.0450583538
101330.99905494
101323.4279560927
101315.4641013619
101307.2968966128
101299.2581035076
101292.0665914003
101286.8672025755
101284.3295383257
101283.6908993816
101283.6093205929
101283.6469599795
101283.8431927791
101284.2810172154
101285.0404251447
101286.2058682091
101287.8620132531
101290.0819081718
101292.9215606996
101296.4201069693
101300.5988800019
101305.4582482617
101310.9751767544
101317.1039532037
101323.7799013039
101330.9203315434
101338.4179395734
101346.129993219
101353.8378930072
101361.0593303515
101366.8614340374
101370.3544392801
101371.5668211545
101371.7082297174
101371.7364864618
101371.6453132523
101371.3603602153
101370.7941376148
101369.8638832231
101368.4771850905
101366.5428696838
101363.9847592954
101360.746304132
101356.7895141589
101352.0952754646
101346.6662933121
101340.5295043385
101333.7357314254
101326.3616646036
101318.5212323306
101310.3829993876
101302.2225057102
101294.6301786039
101288.710074075
101285.4141302108
101284.3723088837
101284.2516737268
101284.2597325578
101284.406069916
101284.7654043583
101285.411595139
101286.425524613
101287.8926848249
101289.8901935455
101292.4788832531
101295.7033479406
101299.5924177993
101304.1566829015
101309.3854269926
101315.2457559172
101321.685233638
101328.6338975151
101335.9975392638
101343.6464122158
101351.3942302154
101358.8685680276
101365.2387566579
101369.4707104682
101371.2711612358
101371.5668977901
101371.5907059131
101371.5299518341
101371.3106180405
101370.8440505426
101370.0533374934
101368.8484010112
101367.1355089614
101364.8327523986
101361.8766414941
101358.2213720824
101353.8384511921
101348.7191095992
101342.877331394
101336.3505646106
101329.2006051436
101321.5239958012
101313.4691314718
101305.2685377719
101297.3908521062
101290.8210602286
101286.7160854671
101285.133535682
101284.8845493963
101284.880557494
101284.9866049699
101285.2782857176
101285.8248316342
101286.702099219
101287.9949833944
101289.7843412648
101292.1359289859
101295.099365967
101298.7098487391
101302.98666836
101307.9297788618
101313.5177872786
101319.7092813641
101326.445037109
101333.6433681749
101341.1895270486
101348.9203217506
101356.5434151209
101363.3815705832
101368.3461507646
101370.8427975358
101371.4386192236
101371.4483074206
101371.4165937795
101371.2436769926
101370.8591859087
101370.1881857418
101369.1460952766
101367.6385541498
101365.5776581171
101362.8921328668
101359.5284050408
101355.4497404715
101350.6376652874
101345.0948312722
101338.8467793948
101331.942698832
101324.4628694776
101316.5354485478
101308.3611352323
101300.3118445587
101293.2003977937
101288.2662652713
101286.0204233117
101285.5216414256
101285.4990119133
101285.5752182958
101285.8098494767
101286.2720753936
101287.0303425613
101288.1663721669
101289.7637944402
101291.8932351903
101294.6091401377
101297.9521924533
101301.9490267292
101306.6089732205
101311.9213026467
101317.8549981231
101324.3607539074
101331.3693544679
101338.7803798745
101346.4469576229
101354.1324023143
101361.3239176756
101366.9896640306
101370.2304211436
101371.2672141079
101371.3546985439
101371.3175464593
101371.1766107573
101370.8588570545
101370.2898996551
101369.3908433554
101368.0684824889
101366.2313220095
101363.8019812963
101360.7196428377
101356.93921661
101352.4327651139
101347.1924371713
101341.2328754098
101334.5919912723
101327.3351172394
101319.5716621215
101311.4777556349
101303.3512879187
101295.8277806246
101290.1048985383
101287.0928251027
101286.1954746813
101286.1230681734
101286.1809268742
101286.3661745363
101286.7559788666
101287.4102527972
101288.4055838478
101289.8266273615
101291.7484775783
101294.2302326151
101297.3173366303
101301.0425682702
101305.4233427937
101310.4584950728
101316.1270131342
101322.3894182071
101329.1874885252
101336.4338027352
101343.9978905618
101351.6841003314
101359.1033617869
101365.3754186304
101369.3968698535
101371.0406349895
101371.2845250816
101371.2368308756
101371.1265679887
101370.8589621683
101370.3706588192
101369.5912762664
101368.4323225442
101366.8000707635
101364.611288925
101361.7978085977
101358.3065225492
101354.1008655241
101349.1635044633
101343.4987831911
101337.1338474898
101330.1208865456
101322.5510911698
101314.5770578537
101306.4458915883
101298.6533785853
101292.2358888186
101288.3743326183
101286.9443058938
101286.736351509
101286.7839541949
101286.9264050699
101287.2554286479
101287.8208911489
101288.6924361501
101289.952976607
101291.6817770572
101293.9430906083
101296.7868372907
101300.2507656553
101304.3588244383
101309.1180880593
101314.5169329069
101320.5251731413
101327.0943950896
101334.1517818841
101341.5854373076
101349.2236754486
101356.7574268732
101363.5075351639
101368.327674913
101370.6657625373
101371.1980191977
101371.1924013148
101371.0894368444
101370.8551235373
101370.431390273
101369.7510106931
101368.7338263749
101367.2864314766
101365.3206683341
101362.7620451957
101359.5500820314
101355.639595732
101351.0040660509
101345.6382042839
101339.5592600207
101332.8083685387
101325.459531115
101317.6421771921
101309.5691784548
101301.6281525731
101294.6439784797
101289.89759157
101287.8139060804
101287.3570536658
101287.3704475394
101287.4858208592
101287.7641929993
101288.256333367
101289.0220118179
101290.1394027953
101291.6899931345
101293.7432551273
101296.354594609
101299.5672336173
101303.4110765909
101307.8999095913
101313.0295905258
101318.7778063702
101325.1051021803
101331.9518392324
101339.2227001558
101346.766857965
101354.3380033634
101361.4235274979
101366.9891722642
101370.0877090052
101371.0987247373
101371.176104661
101371.0766514852
101370.8770692955
101370.4988462867
101369.893314701
101368.991987813
101367.7059136849
101365.9447131781
101363.6275250759
101360.6853489198
101357.0637161751
101352.7270260537
101347.6613688408
101341.8755031845
101335.4010439151
101328.2967319238
101320.6690895353
101312.7012911606
101304.7034845526
101297.3151285245
101291.7344457788
101288.8780172409
101288.0210470768
101287.9492167065
101288.0549890722
101288.2837971972
101288.7189138542
101289.3992175177
101290.3933569698
101291.7819946272
101293.6393670858
101296.0274473306
101298.9966382681
101302.5839190505
101306.8093935774
101311.6746221597
101317.1628824544
101323.2406984369
101329.857689646
101336.9358487903
101344.3494282502
101351.8958483264
101359.177926323
101365.3547250372
101369.2976979197
101370.9010052316
101371.1658102935
101371.1032911401
101370.9266647119
101370.5841324758
101370.0343439712
101369.221751
101368.0694935504
101366.4891431868
101364.3961629975
101361.7142061593
101358.3775203972
101354.3373712889
101349.5689442134
101344.0739110036
101337.8786545771
101331.0332450555
101323.624933028
101315.8072110225
101307.8336589823
101300.197360189
101293.9048623437
101290.1418081894
101288.7690998812
101288.5351023041
101288.5919947424
101288.7837465771
101289.1712642413
101289.7875255452
101290.6875372335
101291.9420017039
101293.6230025298
101295.7969663703
101298.5237971882
101301.8526050671
101305.8147561903
101310.4197664235
101315.6553634349
101321.4898781677
101327.8757481142
101334.7458667905
101341.9942884715
101349.4509436961
101356.8141583773
101363.4392451124
101368.2231658921
101370.5112763016
101371.1276836483
101371.1504477989
101371.0028292575
101370.7068246487
101370.1944048648
101369.4380228024
101368.3796115304
101366.9444772948
101365.0518646678
101362.6189890916
101359.5665143731
101355.8289182345
101351.3650621911
101346.1638660494
101340.2452073654
101333.657236845
101326.4779633762
101318.8377224014
101310.9517348271
101303.2015723349
101296.3802244418
101291.7104711083
101289.6682910955
101289.167538655
101289.1163575181
101289.2612394556
101289.5876404553
101290.1512723599
101290.9861440275
101292.1457084622
101293.6893480198
101295.6766924528
101298.170307183
101301.2329999314
101304.9161294286
101309.2476412752
101314.2270266079
101319.8263341011
101325.9951541793
101332.665777436
101339.742207319
101347.0772782153
101354.4367024638
101361.3305977784
101366.8002343216
101369.9202956675
101370.9808526353
101371.1488577006
101371.1013166667
101370.87338352
101370.4205645984
101369.7096476246
101368.7023111201
101367.3513361918
101365.6006291372
101363.3811957114
101360.6089682654
101357.1948563416
101353.0652725137
101348.1814796866
101342.5480277208
101336.2109641095
101329.2505464211
101321.7886240904
101314.0159392596
101306.2372979417
101299.0687224611
101293.6399480992
101290.780506496
101289.8954631731
101289.7551247426
101289.7843201361
101290.0070652488
101290.4752421955
101291.2359387731
101292.333272344
101293.8043559403
101295.679050702
101297.9922251205
101300.7984785046
101304.1707713899
101308.1792341695
101312.8635231773
101318.2159258754
101324.1816300615
101330.6753159298
101337.5934720268
101344.8001822068
101352.1045345672
101359.1478266391
101365.1380724046
101369.0692189539
101370.7105354692
101371.0497687926
101371.0928357885
101370.9790736
101370.6695357092
101370.0866976928
101369.1673765367
101367.8595588597
101366.1348998576
101363.9819339573
101361.3803373453
101358.2787612835
101354.5867937265
101350.1791577162
101344.9306583359
101338.7988141132
101331.9322094706
101324.5449677061
101317.1291331954
101308.5952927035
)
;

boundaryField
{
    inlet
    {
        type            uniformFixedValue;
        uniformValue    sine;
        uniformValueCoeffs
        {
            frequency       constant 3000;
            scale           constant 50;
            level           constant 101325;
        }
        value           uniform 101326.3578702043;
    }
    outlet
    {
        type            pressureOutletNSCBC;
        pInf            101325;
        gamma           1.4;
        etaAc           1;
        fieldInf        1;
        lInf            2.25;
        value           uniform 101304.7663451304;
    }
    frontAndBack
    {
        type            empty;
    }
}


// ************************************************************************* //
