/*--------------------------------*- C++ -*----------------------------------*\
| =========                 |                                                 |
| \\      /  F ield         | OpenFOAM: The Open Source CFD Toolbox           |
|  \\    /   O peration     | Version:  v2012                                 |
|   \\  /    A nd           | Website:  www.openfoam.com                      |
|    \\/     M anipulation  |                                                 |
\*---------------------------------------------------------------------------*/
FoamFile
{
    version     2.0;
    format      ascii;
    class       volScalarField;
    location    "0.0175";
    object      pMean;
}
// * * * * * * * * * * * * * * * * * * * * * * * * * * * * * * * * * * * * * //

dimensions      [1 -1 -2 0 0 0 0];


internalField   nonuniform List<scalar> 
1000
(
101325.327812093
101325.300113244
101325.294127636
101325.2896033695
101325.2790877857
101325.2672014905
101325.2511385757
101325.2355683337
101325.2176941391
101325.1993240309
101325.1800656541
101325.160423586
101325.1409808555
101325.121671967
101325.102979823
101325.0852052399
101325.0688229191
101325.0541644259
101325.0414725132
101325.0310767366
101325.0230689423
101325.0177647412
101325.0149640413
101325.0150667176
101325.0178608627
101325.0234489929
101325.0316659438
101325.042418568
101325.0554502442
101325.0706856978
101325.087869897
101325.106744894
101325.1266690285
101325.1469777548
101325.1675282579
101325.1878601935
101325.2080091589
101325.2277139923
101325.2466632576
101325.2644451989
101325.2807072216
101325.2949994979
101325.3071047869
101325.3167411429
101325.3239044396
101325.3281567398
101325.3298372783
101325.3286765593
101325.324864644
101325.3184306838
101325.309493184
101325.2981077836
101325.2844234269
101325.2686011224
101325.2509948505
101325.2323321821
101325.2131464493
101325.1942878339
101325.1752972112
101325.1564965984
101325.1380497441
101325.1202376884
101325.1033678468
101325.0879354099
101325.0741936731
101325.0626402093
101325.0534666315
101325.0470313131
101325.0431549024
101325.0422468257
101325.0439955383
101325.0486230837
101325.0558956968
101325.0658382082
101325.0782507605
101325.0930686523
101325.1100616433
101325.1287811662
101325.1484922481
101325.1683130041
101325.1885387378
101325.2084929549
101325.2282482878
101325.2477344017
101325.2666045247
101325.2845959166
101325.301355704
101325.3164786828
101325.3295937922
101325.3404215088
101325.3487077431
101325.3542931007
101325.3569985063
101325.3568683648
101325.3540569663
101325.3485162297
101325.3404123457
101325.3297665456
101325.3166239167
101325.3012575296
101325.283977218
101325.2656761569
101325.2467716493
101325.2282873265
101325.2096427342
101325.1911169491
101325.1729315123
101325.155214029
101325.1382743041
101325.1224642847
101325.1081222089
101325.0956474778
101325.0853968638
101325.0776450247
101325.0727258673
101325.0704430913
101325.0710935549
101325.0747277928
101325.0810821676
101325.0902640226
101325.1020863747
101325.1164195757
101325.1330703945
101325.1514961321
101325.1709495759
101325.1904931868
101325.2103951313
101325.2301400971
101325.2496144445
101325.268927583
101325.2877032959
101325.3057972275
101325.3227900809
101325.3384730066
101325.3523180536
101325.3641615077
101325.3735205309
101325.3805000191
101325.3842952554
101325.3854539762
101325.3837139396
101325.3791577809
101325.3718826535
101325.3619891192
101325.3494791957
101325.3346432398
101325.317804235
101325.2998292722
101325.2813186817
101325.2628682086
101325.244642809
101325.2263682246
101325.2083700208
101325.1907973513
101325.1738588237
101325.1578334258
101325.1431107361
101325.1299781078
101325.1188553066
101325.1100142286
101325.1039620324
101325.1003201002
101325.0998478195
101325.1022950777
101325.1076757838
101325.1159781278
101325.1271112205
101325.1409364184
101325.1571540774
101325.175302898
101325.1944761427
101325.2139813635
101325.2333000827
101325.2530689434
101325.2723794058
101325.2915177625
101325.3102392058
101325.3283719747
101325.3455522148
101325.3616038352
101325.3760399548
101325.3886682847
101325.3990163206
101325.4071301754
101325.4121426635
101325.4146511306
101325.4140330209
101325.410656003
101325.4043012299
101325.3952551536
101325.383492208
101325.3692383141
101325.3529058454
101325.3352351372
101325.3171490505
101325.2986310012
101325.2808181046
101325.2627981071
101325.2449324194
101325.2274967199
101325.2105841419
101325.1944814016
101325.1794448605
101325.1658699503
101325.1540306682
101325.1443285934
101325.1371269947
101325.1324871991
101325.1307594639
101325.1319277987
101325.1362540414
101325.1435243937
101325.1538302098
101325.1670364607
101325.1827658298
101325.2006108765
101325.2195459771
101325.2389819138
101325.2579833911
101325.277691241
101325.296895465
101325.3158629769
101325.3345282085
101325.3526890106
101325.3700468415
101325.3863412814
101325.4012839315
101325.4145380851
101325.4257855765
101325.4347414653
101325.4412744384
101325.4447764805
101325.4454226732
101325.4432490223
101325.4379969674
101325.4298968787
101325.418981698
101325.4054300674
101325.3896434883
101325.3723503568
101325.3545417114
101325.3362691549
101325.3185846926
101325.3008553846
101325.283124418
101325.2658186042
101325.2489700814
101325.2328514552
101325.2175999553
101325.2037023935
101325.1912995637
101325.1809143919
101325.1726704946
101325.1672740587
101325.1641369501
101325.1642291796
101325.1673611255
101325.1736115486
101325.1829279527
101325.1953555866
101325.2105396642
101325.2279829175
101325.2467265965
101325.2660001201
101325.2850525388
101325.3042790786
101325.3236080576
101325.3424863687
101325.3611052335
101325.3792890337
101325.3967886083
101325.4133230934
101325.4286492497
101325.4424619424
101325.4544517412
101325.4642583461
101325.4719535891
101325.4764748532
101325.4784688288
101325.4774713869
101325.4734588685
101325.4664024686
101325.4564353982
101325.4437340731
101325.4285717831
101325.411758774
101325.3941421053
101325.3763973804
101325.3583582295
101325.3411314941
101325.3236095001
101325.3064245044
101325.2896333844
101325.2735362074
101325.2582032045
101325.2440056894
101325.2312138851
101325.2202245956
101325.2112036426
101325.2049046728
101325.2006696831
101325.1997532391
101325.2016634499
101325.2068624328
101325.2151269153
101325.226649233
101325.2411600701
101325.2581217452
101325.2766503012
101325.2957410858
101325.314978759
101325.3336487325
101325.3531669883
101325.3720468217
101325.3906092383
101325.4088032092
101325.426437304
101325.4432172112
101325.4588372596
101325.4731514718
101325.4857571651
101325.4964039578
101325.504919967
101325.5107673424
101325.5138895698
101325.514042416
101325.5112870947
101325.5054069587
101325.4964692587
101325.484701319
101325.4703212798
101325.4540565545
101325.4367292437
101325.4193660124
101325.4013344398
101325.3843904824
101325.3671268947
101325.3500228818
101325.3333235914
101325.3172516807
101325.3019045621
101325.2875066537
101325.2744095162
101325.2629217036
101325.253338268
101325.246010589
101325.2413419544
101325.239092743
101325.2399338713
101325.2440307822
101325.2512776472
101325.2617804605
101325.2754615974
101325.2918916065
101325.3101119953
101325.3291023156
101325.3483058233
101325.3670051402
101325.3862630666
101325.4053181069
101325.4238338273
101325.4421114523
101325.4598245729
101325.4768717671
101325.4928123994
101325.5075417406
101325.5207261547
101325.5321649504
101325.5413766361
101325.5486190564
101325.5525759122
101325.5540377108
101325.5524952167
101325.5479031549
101325.5400992075
101325.5293538739
101325.5159022588
101325.5003120617
101325.483434747
101325.4662699714
101325.4488305124
101325.4315068204
101325.414798275
101325.3978778365
101325.3813470517
101325.3653012918
101325.3500202978
101325.335568473
101325.3222187837
101325.3103911725
101325.3003425933
101325.2922941372
101325.2870073178
101325.2836573536
101325.2836626803
101325.2866683419
101325.2929360883
101325.3024574775
101325.3152276651
101325.3310184089
101325.3489123887
101325.3678539403
101325.3869872581
101325.406123129
101325.4247284824
101325.4442037739
101325.4628871313
101325.4812822825
101325.4991517137
101325.516490067
101325.5328491731
101325.548014502
101325.5617987628
101325.5739683878
101325.5840735539
101325.5922925652
101325.5974477253
101325.600241687
101325.5999097513
101325.5966831807
101325.5902202053
101325.580647299
101325.5682591661
101325.5535659105
101325.5373211388
101325.5204618725
101325.5036777276
101325.4861959192
101325.4700134659
101325.453461699
101325.4370968471
101325.4212198991
101325.4060127172
101325.3916508525
101325.3782086752
101325.3661229624
101325.355685002
101325.3471800968
101325.3409674963
101325.3372229379
101325.3360519766
101325.3379132334
101325.3430302212
101325.3513701891
101325.3628967352
101325.3775473945
101325.3946066016
101325.4129687782
101325.431567493
101325.4503791212
101325.4683957373
101325.4873721349
101325.5058217824
101325.523755969
101325.5413451541
101325.5583640936
101325.5746633655
101325.5898077204
101325.603638627
101325.6160266993
101325.626644241
101325.6351477901
101325.641630642
101325.6449455694
101325.6457148949
101325.643623373
101325.6384122723
101325.6300745009
101325.6187790166
101325.6051090313
101325.5896717686
101325.5733238791
101325.5569598612
101325.5401724752
101325.5238072917
101325.5079375309
101325.4918700281
101325.4762948025
101325.4611919694
101325.4469941148
101325.4335973675
101325.421334681
101325.4105810785
101325.4017046946
101325.3947343232
101325.3906021686
101325.3881996183
101325.3892042571
101325.3932027433
101325.4004586311
101325.4109268282
101325.4245400068
101325.4408965675
101325.4589489569
101325.4774882527
101325.4961417253
101325.5145923937
101325.5327057715
101325.551576998
101325.5696173457
101325.5872963909
101325.604416778
101325.6209337053
101325.6364746698
101325.6506859626
101325.6635514052
101325.6748275778
101325.6840631328
101325.6915028561
101325.6957148041
101325.6977526889
101325.6967277744
101325.6927693338
101325.6856766776
101325.6754495745
101325.6626575447
101325.647940706
101325.6320797238
101325.6158001184
101325.5996929855
101325.5828584553
101325.5674883647
101325.5516450225
101325.5360967737
101325.5210272479
101325.5067222644
101325.4933368886
101325.4808496198
101325.4697640769
101325.4604040589
101325.4529512472
101325.4479030134
101325.4450918306
101325.4450509171
101325.4479706934
101325.4542248471
101325.4636583832
101325.476313316
101325.4918123195
101325.5095088067
101325.5279487866
101325.5464294231
101325.5651743049
101325.5829486492
101325.6018857425
101325.6201313035
101325.6378158067
101325.655119768
101325.6717495617
101325.6876874999
101325.7022920191
101325.7156207155
101325.7273953914
101325.7374642455
101325.745378044
101325.751201988
101325.7538576525
101325.7539849991
101325.7512269267
101325.7453486559
101325.7363475367
101325.7244348003
101325.7105499115
101325.6951357636
101325.6791569692
101325.6633899306
101325.6469566567
101325.6312226101
101325.6158806241
101325.600417517
101325.5854488881
101325.5710458304
101325.5576009058
101325.545064145
101325.533601924
101325.523871102
101325.5159749121
101325.5100784472
101325.5070118347
101325.5056769127
101325.5077908623
101325.5130079994
101325.5214253647
101325.5331185693
101325.5476972987
101325.5648189429
101325.5830570254
101325.6015490628
101325.6201369796
101325.6384242996
101325.6564316405
101325.6751907132
101325.6930037206
101325.71044649
101325.7272292337
101325.7433754265
101325.7585435572
101325.7720810989
101325.7846401077
101325.795236938
101325.8038289041
101325.8106946975
101325.8141325619
101325.8155192512
101325.8138038996
101325.8091781918
101325.8013878723
101325.7905879328
101325.7773597507
101325.7627984175
101325.7469947816
101325.7313990322
101325.7157580017
101325.6994704448
101325.6846787384
101325.6694100942
101325.6544532488
101325.6400661797
101325.6264373637
101325.6139627466
101325.6020859287
101325.5922969619
101325.5837222671
101325.5773290731
101325.5733753736
101325.5716499717
101325.5727055567
101325.5768559389
101325.5842952144
101325.5949393051
101325.6086844519
101325.6248942566
101325.6431325115
101325.6612229216
101325.6798459888
101325.698439038
101325.7160778733
101325.7349071204
101325.7529570258
101325.7704283091
101325.7874409281
101325.8037252247
101325.8193071223
101325.8333170639
101325.8463289971
101325.857523364
101325.8669149779
101325.8742213729
101325.8793391827
101325.8812544381
101325.8806970602
101325.8772800309
101325.8706914856
101325.8611209079
101325.8486615599
101325.8348576037
101325.8194434371
101325.8040802956
101325.7888236564
101325.7729743203
101325.757744702
101325.7430107112
101325.728129881
101325.7138210666
101325.7000868737
101325.6874393826
101325.6757020782
101325.6651124504
101325.6565590676
101325.649539856
101325.6447142359
101325.6428234323
101325.6425063108
101325.645891178
101325.6523062291
101325.6619556633
101325.6747647281
101325.6902182917
101325.7078586522
101325.726070096
101325.7443682249
101325.7630865461
101325.7811853334
101325.7990799841
101325.8176986605
101325.8353304175
101325.8524929589
101325.8689983808
101325.8847430562
101325.8995767388
101325.9123960713
101325.9248126855
101325.9345707781
101325.9426016214
101325.9488162573
101325.9515081994
101325.9521968047
101325.9497944149
101325.9444949962
101325.9360799807
101325.9247696631
101325.9113788326
101325.8968980844
101325.8815176501
101325.8666840723
101325.851408635
101325.8357108709
101325.8215205724
101325.8068169239
101325.7924765557
101325.7787672127
101325.7658658766
101325.7542502747
101325.7430533912
101325.7345356642
101325.7268884636
101325.7214701967
101325.7187036168
101325.7180605791
101325.7203172127
101325.7256648684
101325.7343864809
101325.7461625739
101325.760925086
101325.7776754309
101325.7960657299
101325.8141519789
101325.8327001269
101325.8511170759
101325.8687631257
101325.8873287306
101325.9052734885
101325.9224995442
101325.939271432
101325.9551876209
101325.9704626321
101325.9838232492
101325.996656148
101326.0072588694
101326.0157893217
101326.022561912
101326.027035364
101326.0281410105
101326.0269351699
101326.0228406621
101326.0156332892
101326.0055132998
101325.9927951633
101325.9789440365
101325.9640852727
101325.949122291
101325.9345766446
101325.9192212986
101325.904453001
101325.8903591301
101325.8760765668
101325.8624208107
101325.8493952626
101325.8375624876
101325.8265377783
101325.8171127507
101325.8094514947
101325.8033740408
101325.7996753148
101325.799065839
101325.7997366888
101325.8044528807
101325.8120680601
101325.8229413782
101325.8367849166
101325.8529957967
101325.8707963888
101325.8890747387
101325.9072610106
101325.9260391252
101325.9439361513
101325.9616170686
101325.9801886475
101325.9975675353
101326.0144888445
101326.0306828915
101326.0460883046
101326.0604565884
101326.0728584931
101326.0846039824
101326.0940657077
101326.1011422526
101326.1068941882
101326.1087895517
101326.1088292438
101326.1056772694
101326.0998058838
101326.0907870554
101326.0791880962
101326.0656735256
101326.0514215758
101326.0367795101
101326.0223300519
101326.0077743864
101325.9924640685
101325.9789008422
101325.9648022191
101325.9510600041
101325.9380678913
101325.9259059361
101325.9151045606
101325.9047979112
101325.8971572869
101325.8909241289
101325.8859740386
101325.8845969395
101325.8852971111
101325.8886032175
101325.8952261743
101325.9051767181
101325.9180759833
101325.9336900149
101325.9508873365
101325.9690992262
101325.9874581183
101326.0055974022
101326.0243934219
101326.0416626261
101326.0599089977
101326.0778321635
101326.094829688
101326.1113421325
101326.1269450427
101326.1418185009
101326.1546919624
101326.1671070386
101326.1772122887
101326.1850096539
101326.1910548298
101326.1952015886
101326.1952315531
101326.193499749
101326.188697355
101326.1809642433
101326.1704060429
101326.1576711461
101326.1437130873
101326.12961394
101326.1151245995
101326.1012737445
101326.0864845001
101326.0718753124
101326.0586512043
101326.0449607083
101326.0319580746
101326.0197038184
101326.0086340011
101325.9984824425
101325.9899957946
101325.9832435535
101325.9786110475
101325.9754406964
101325.9763941511
101325.9780992926
101325.9842177028
101325.9929081518
101326.005019912
101326.0197703161
101326.0367090522
101326.0543732199
101326.0727720954
101326.0910595747
101326.1093516953
101326.1277855815
101326.1445894716
101326.1633878818
101326.1806386471
101326.1972087202
101326.2131963379
101326.228204975
101326.2421328624
101326.254072379
101326.2652366718
101326.2744629657
101326.2803079276
101326.2854233835
101326.2874156387
101326.286217808
101326.282534918
101326.2760067758
101326.2665441334
101326.2547842838
101326.2412851446
101326.2273718229
101326.2135404272
101326.1991798208
101326.1860035982
101326.1707994088
101326.1573100176
101326.1442402619
101326.1310735094
101326.1188364221
101326.1075040389
101326.0974150161
101326.0881342715
101326.081439675
101326.0762437022
101326.0726585835
101326.0718375622
101326.0746396353
101326.0782496943
101326.0865413291
101326.0974807849
101326.1114673899
101326.1277663854
101326.1454673901
101326.1632451464
101326.1817493932
101326.19992943
101326.2183628603
101326.2363719183
101326.2529204576
101326.2715071929
101326.2883740881
101326.3045409234
101326.3200263707
101326.3342535395
101326.3469847393
101326.3583832434
101326.3679827879
101326.3760107718
101326.3801070773
101326.3841045245
101326.3837048179
101326.3814740649
101326.3758838065
101326.3676450916
101326.356737627
101326.3441844557
101326.3303140904
101326.3167158724
101326.3031036368
101326.2890633329
101326.2763292014
101326.2607754177
101326.248773337
101326.2359292605
101326.2231835928
101326.2119181669
101326.2014842859
101326.1922808839
101326.1844396368
101326.1790775709
101326.1757625712
101326.1734644575
101326.1749269342
101326.1794993476
101326.1853947171
101326.1958901944
101326.2088109603
101326.2244349179
101326.2417037366
101326.2598322611
101326.2776338716
101326.2961237729
101326.3143039069
101326.3325478149
101326.3506336809
101326.3663477463
101326.3847685186
101326.4012752805
101326.4170704011
101326.4320066342
101326.4450062726
101326.4568761116
101326.467288104
101326.4756111077
101326.4821196201
101326.4846593214
101326.4870901544
101326.484540296
101326.4813166021
101326.4738462574
101326.4640532786
101326.452074721
101326.4390149968
101326.4253257177
101326.411877832
101326.3985363515
101326.3848024835
101326.3726747743
101326.3571029239
101326.3460679098
101326.3338538206
101326.3214647218
101326.3119294006
101326.3012389808
101326.2936922554
101326.2875611015
101326.283338236
101326.2821961348
101326.2814041284
101326.2847282279
101326.2913402787
101326.3027926884
)
;

boundaryField
{
    inlet
    {
        type            calculated;
        value           uniform 101325.3031336357;
    }
    outlet
    {
        type            calculated;
        value           uniform 101326.3069085155;
    }
    frontAndBack
    {
        type            empty;
    }
}


// ************************************************************************* //
