/*--------------------------------*- C++ -*----------------------------------*\
| =========                 |                                                 |
| \\      /  F ield         | OpenFOAM: The Open Source CFD Toolbox           |
|  \\    /   O peration     | Version:  v2012                                 |
|   \\  /    A nd           | Website:  www.openfoam.com                      |
|    \\/     M anipulation  |                                                 |
\*---------------------------------------------------------------------------*/
FoamFile
{
    version     2.0;
    format      ascii;
    class       volScalarField;
    location    "0.0175";
    object      rho;
}
// * * * * * * * * * * * * * * * * * * * * * * * * * * * * * * * * * * * * * //

dimensions      [1 -3 0 0 0 0 0];


internalField   nonuniform List<scalar> 
1000
(
1.176545359683194
1.176522161731414
1.176575147326499
1.176618417770036
1.176669711391322
1.176716118740019
1.176754995417018
1.17678751786442
1.176814859030807
1.176833096147753
1.176838543680652
1.176838090489049
1.176834217419154
1.176824611351586
1.176806999411107
1.176780568894224
1.17674631530937
1.17670583568554
1.176660429183762
1.17661097531505
1.176558189573677
1.176502864064581
1.176445929580993
1.176388383591838
1.176331213066238
1.17627538610633
1.176221835215707
1.176171291352637
1.176124052221916
1.176080232346217
1.176041287713584
1.176011924344335
1.17599712462092
1.175994181853897
1.17599466244495
1.175997637569413
1.176005182054216
1.176019154237346
1.176041052332344
1.176071513361943
1.176110057549038
1.17615529276108
1.176205451212812
1.176258906863993
1.176314419031849
1.176371084140838
1.176428149113708
1.176484856953196
1.176540424102153
1.176594180068713
1.176645751412849
1.176694983495613
1.1767413368657
1.176782393745872
1.176812230419612
1.17682600481909
1.176828823899498
1.176828964772243
1.176826678025502
1.17682071522978
1.17680941480223
1.176791233737223
1.176765076897659
1.176730590776933
1.176688279925507
1.176639405223647
1.176585681461321
1.176528897084445
1.176470617783841
1.176412058480912
1.17635409805006
1.176297353608375
1.17624222049923
1.17618888219377
1.176137531286458
1.176089204145211
1.176047495257931
1.176019102722401
1.176007081415137
1.176004913117539
1.176005228981657
1.176007765746816
1.176013744370454
1.176024540066067
1.176041529705329
1.176065815548794
1.176097965040248
1.176137843140961
1.176184598435426
1.176236807600109
1.176292738263884
1.176350652617794
1.176409066444917
1.176466900979047
1.176523507801875
1.176578621440756
1.176632247151354
1.176684266500751
1.176733608112115
1.176776923449236
1.176807551769574
1.176821072727509
1.176823990687685
1.176824526937817
1.176822836723124
1.176818239774079
1.17680932602727
1.176794787503185
1.176773481507425
1.176744624289586
1.176707950237758
1.176663821211701
1.176613232233309
1.176557684976612
1.176498952061712
1.176438785786162
1.176378645493202
1.176319531392584
1.17626195795924
1.17620606927041
1.176152074217078
1.176101286365908
1.17605774361325
1.176028393101988
1.176016125307256
1.176013716588463
1.176013599594587
1.176015562197533
1.176020414848733
1.176029314433912
1.176043441414681
1.176063866712157
1.176091361235002
1.176126252758826
1.176168332758436
1.176216833520506
1.176270495637594
1.176327731990987
1.176386871130678
1.17644642559091
1.176505292335496
1.17656283681537
1.176618843923156
1.176673104522008
1.176724455080341
1.176769545642573
1.176801941660061
1.176816821630739
1.176820354228226
1.176821249641895
1.176820112778233
1.176816579216538
1.176809393981508
1.176797385100789
1.176779475057944
1.176754793808688
1.176722798038894
1.176683391194721
1.176637000955287
1.176584578353634
1.17652750531579
1.176467409896828
1.176405912977995
1.176344388226618
1.176283819479563
1.176224793492714
1.17616784642383
1.17611451026476
1.176068854864822
1.17603774453995
1.17602445440915
1.17602155472368
1.17602101459971
1.176022472514991
1.176026362387911
1.176033789147046
1.176045782250638
1.176063335918045
1.176087263082517
1.176118075331596
1.17615589196144
1.176200382497051
1.176250758013546
1.176305829757089
1.176364149057784
1.176424218365124
1.176484707982578
1.176544604973649
1.176603272284174
1.176660186546961
1.17671400687772
1.176761372092747
1.176796157862691
1.176813082751685
1.176817401635535
1.17681855851812
1.176817936287601
1.176815262395811
1.176809452708768
1.176799426492927
1.176784174867943
1.176762823038984
1.176734709160468
1.176699490354128
1.176657231994813
1.176608450124205
1.176554094628559
1.176495460308587
1.176434017605195
1.176371208423056
1.176308286083658
1.176246235558329
1.176185992465037
1.176129417246838
1.176080816711746
1.176047164827202
1.17603221829003
1.176028725270053
1.176027899826904
1.176028908118771
1.17603200011142
1.176038192784931
1.176048437163234
1.176063661599964
1.176084675868357
1.176112075062202
1.176146159415124
1.176186874682908
1.176233778490229
1.176286047399857
1.176342544318105
1.176401955951338
1.17646296600892
1.176524397871737
1.176585313519313
1.176644898660372
1.176701632195273
1.176751993278407
1.176789876776064
1.176809506389385
1.176814888510276
1.176816193065479
1.176816057992399
1.176814096191576
1.176809429270433
1.17680104485287
1.176787990109896
1.176769404439968
1.176744572701436
1.176713014869502
1.1766745679771
1.176629437322093
1.176578213478723
1.17652184281412
1.176461530143649
1.176398591489057
1.176334328087948
1.176269949556924
1.17620668920236
1.176146652273528
1.176094388284012
1.176057183345655
1.176039670730612
1.17603529649405
1.176034280144897
1.176034876234654
1.176037306191842
1.176042465738758
1.176051244303524
1.176064511938359
1.176083060977951
1.176107529403818
1.176138328134049
1.176175585801434
1.176219109394098
1.176268367499902
1.176322514181259
1.176380472480502
1.176441063083322
1.176503117406103
1.17656555699522
1.176627368339397
1.17668694194088
1.176740662420721
1.176782315112999
1.176805550848429
1.176812609972712
1.176813987092069
1.176814313336606
1.176812909507857
1.176809199265658
1.176802201532605
1.176791016660505
1.1767747979195
1.176752800776659
1.176724463003519
1.176689473730281
1.176647819697072
1.17659981507641
1.176546104819802
1.176487615508645
1.176425458342192
1.176360845044649
1.176295043241437
1.176229429156124
1.176166173309807
1.176109903110336
1.176068294300075
1.176047174213841
1.176041382428449
1.176040237358856
1.176040421240725
1.17604227390466
1.176046531348607
1.176054033032765
1.176065604943846
1.176082021793364
1.176103941544045
1.176131840392653
1.176165966978371
1.176206306229979
1.176252552515263
1.176304108547978
1.176360130951049
1.17641961989243
1.176481502246314
1.176544677794406
1.176608032944136
1.176669992466205
1.176727052892853
1.176772898886579
1.176800630800548
1.176810167801373
1.176811843900286
1.176812462907908
1.176811524472312
1.176808629519192
1.176802826008254
1.176793255290961
1.176779092071082
1.176759577918393
1.176734098165262
1.17670224263021
1.176663843077976
1.176619003844813
1.176568121547018
1.176511870269437
1.176451143007635
1.17638699592602
1.176320639174236
1.17625348251804
1.176187632497918
1.176127509936745
1.176080956769497
1.176055084916378
1.176047019544111
1.176045694799882
1.176045504363829
1.176046868273755
1.176050337547895
1.176056708484944
1.176066768108096
1.176081283372332
1.176100928132748
1.176126222190674
1.176157495164716
1.176194858917498
1.176238178773475
1.176287058422723
1.176340859983835
1.176398764801438
1.176459834797321
1.176523030360092
1.176587216992495
1.176650908969042
1.176710938639739
1.176761070289809
1.176793847099712
1.176806889717865
1.176809249746668
1.176810008583205
1.176809471443253
1.176807268784087
1.176802502345296
1.176794349017027
1.176782003386432
1.176764693330774
1.176741762514154
1.176712732938883
1.176677330681156
1.176635506984981
1.176587464103431
1.176533663358418
1.176474794415681
1.176411739853263
1.176345594307884
1.176277716526983
1.176210040741865
1.176146497028518
1.176094697455653
1.176063016087591
1.176051536852728
1.176049603351718
1.17604915766899
1.176050103258623
1.176052848216826
1.176058188053943
1.176066867597312
1.176079639051717
1.176097190250001
1.176120076353651
1.176148688554127
1.176183234949775
1.176223714292592
1.176269893506195
1.176321309501608
1.176377307881526
1.17643709236868
1.176499727696375
1.176564111483718
1.176628844083387
1.17669123088527
1.176745478143328
1.17678366603041
1.176801377459703
1.176805174528326
1.176805961632335
1.17680575747001
1.176804140993801
1.176800291795578
1.176793430257987
1.176782780950658
1.176767564653283
1.176747092577858
1.176720840638082
1.176688467608011
1.176649824008201
1.176604976263101
1.176554226690402
1.176498102149334
1.176437329696525
1.176372863846712
1.176305959333207
1.176238375870641
1.176173486087102
1.176118258264054
1.176081720242677
1.176066497884459
1.176063520479274
1.176062948817261
1.176063562844526
1.176065703379597
1.176070124350166
1.176077515009219
1.176088597580379
1.176104063629432
1.176124487973905
1.176150295522525
1.176181755391691
1.176218963512868
1.176261816492508
1.176309999797055
1.176363008671845
1.176420187298896
1.176480728338912
1.176543629908724
1.176607618055299
1.176670530421996
1.176727429211686
1.176770310485176
1.176793264220907
1.176799552929808
1.176800322853044
1.176800431711484
1.176799331674137
1.176796331790195
1.176790697844808
1.176781691273989
1.176768538928419
1.17675052148595
1.176727062792228
1.176697751929817
1.176662341660622
1.176620763809802
1.176573154964709
1.176519864387237
1.176461441340175
1.176398663084876
1.176332626719359
1.176264902637407
1.176198241857558
1.176138605801558
1.176095488822026
1.176074444506341
1.176069148378418
1.176068471853149
1.176068783982866
1.176070411299626
1.176074042098359
1.176080339730701
1.17609000451988
1.176103738554277
1.176122147540528
1.176145695840734
1.176174707867562
1.176209360360129
1.176249656172466
1.176295404059891
1.176346224717693
1.176401581593062
1.176460788791805
1.176522956363493
1.176586900675967
1.176650809164419
1.176710683004844
1.176758788112749
1.176787748170727
1.176797799806577
1.176798972192648
1.176799206456776
1.17679845054906
1.176796088053017
1.176791393608002
1.176783681036276
1.176772184140115
1.176756146963397
1.176734937843291
1.176708087808828
1.176675281722836
1.176636360906277
1.176591347545445
1.176540464704897
1.176484133486105
1.176422989479208
1.176357977085696
1.176290493829724
1.176222824438041
1.17615986508457
1.176110771726367
1.176083439273953
1.176074799650605
1.176073799242304
1.176073866067614
1.17607507960905
1.176078059497849
1.176083418231997
1.176091826540105
1.176103993361297
1.176120558163785
1.176142025333911
1.176168764560568
1.176201014770919
1.176238863598174
1.176282221962725
1.176330816857897
1.176384213226356
1.17644183069172
1.176502887868952
1.176566308759826
1.176630548667726
1.17669251973778
1.176745335104352
1.176780421814994
1.176795349050997
1.176797800944692
1.176797998329357
1.17679749462241
1.176795676161745
1.176791807936409
1.176785252277812
1.176775262346736
1.176761060985109
1.176741969027769
1.176717459981794
1.176687153942144
1.176650814486594
1.176608368681731
1.176559932210636
1.176505815280988
1.176446529977378
1.176382876518871
1.176316085138573
1.176248083809978
1.176182758649034
1.176128278027001
1.176094236643942
1.176081112906581
1.176079048111819
1.176079015005298
1.176079894431269
1.176082313277156
1.176086845668798
1.176094120660133
1.176104842244493
1.176119680908803
1.176139181882656
1.176163756544131
1.176193696630434
1.176229161944268
1.17627015190256
1.176316488879171
1.17636782923005
1.176423681617233
1.176483368469099
1.176545938126432
1.17661003733189
1.17667324218321
1.176729937798124
1.17677109881237
1.176791798139054
1.17679673798732
1.176796818309686
1.176796555373938
1.176795121748017
1.176791934000648
1.17678637085868
1.176777731060781
1.176765232250009
1.176748145568634
1.176725879999844
1.176697991242598
1.176664174565122
1.1766242765891
1.176578319053026
1.176526513446429
1.1764692673227
1.176407246037741
1.176341511982532
1.176273729164643
1.176206981541319
1.176148009624905
1.176107092496222
1.17608846829034
1.176084332000624
1.176084144338544
1.176084776299819
1.176086722041967
1.17609055517749
1.17609684331395
1.176106264130839
1.176119511120256
1.17613716990596
1.17615969190295
1.176187414362461
1.176220557999729
1.176259199998499
1.176303251171226
1.176352454080342
1.176406399628961
1.176464513640694
1.176525963233598
1.176589530426643
1.176653252682322
1.176712878394184
1.176759852951195
1.176786721660427
1.17679531753054
1.176796042848181
1.176795734825971
1.17679456635025
1.176791931908582
1.17678721478308
1.17677976085909
1.176768797361005
1.176753565672047
1.176733424163981
1.176707868492708
1.176676524666737
1.17663916086195
1.176595711750204
1.176546298470088
1.176491235068999
1.17643106295565
1.176366689037885
1.176299573546559
1.176232186521729
1.176169798065108
1.176122340386255
1.176097362116459
1.176089920603373
1.176089320154117
1.176089799964063
1.176091336179568
1.176094568734606
1.176099994471409
1.176108248501105
1.176120032823359
1.176135970127223
1.176156550421324
1.176182150452934
1.176213041903148
1.176249369015735
1.176291121925509
1.176338126166617
1.176390054130891
1.176446422796009
1.176506507045091
1.176569224867998
1.176632953902822
1.176694468280552
1.176746470011946
1.176779811471257
1.17679343966166
1.176795461711225
1.176795066288886
1.176794152118501
1.176791933444254
1.176787885005897
1.176781423276732
1.176771814568267
1.17675828177025
1.176740134755527
1.176716808251069
1.176687861813359
1.176652992103606
1.176612055194867
1.176565086848919
1.176512311857901
1.17645416264936
1.176391395054527
1.176325274130254
1.176257848728665
1.17619323007945
1.176140012641907
1.176107990003986
1.176096131167705
1.176094406654003
1.17609480141356
1.176095982724849
1.176098711235279
1.176103400472175
1.176110627965429
1.17612108127122
1.176135417670465
1.176154169932167
1.176177751934182
1.176206476586066
1.176240542325812
1.176280007627903
1.176324775888223
1.176374596562604
1.17642906795612
1.176487586038891
1.17654922278603
1.176612554503893
1.17667501855346
1.176730984135169
1.176770947601562
1.176790332346983
1.17679474519388
1.176794698619347
1.17679384496208
1.17679190231258
1.176788389214119
1.176782748302665
1.176774314986825
1.176762314826595
1.176746016869105
1.176724803430959
1.176698172959171
1.176665750683082
1.176627316521718
1.176582826386503
1.176532423026921
1.176476447219531
1.17641551225574
1.176350691066005
1.176283748581877
1.176217898960323
1.176159982680147
1.176120622636943
1.176103343239205
1.176099554681965
1.1760996657572
1.176100622522882
1.176102930992978
1.176107012183877
1.176113361746826
1.176122627946851
1.176135486500866
1.176152513469267
1.176174168234627
1.176200809110359
1.176232683937365
1.176269906860546
1.176312443327435
1.176360108085371
1.176412573728514
1.176469345493243
1.176529632804365
1.176592184886956
1.176654959404311
1.176713706301274
1.176759850910687
1.176785540496944
1.176793922656402
1.176794564202247
1.176793739658393
1.176792084960941
1.176788949181292
1.17678392882245
1.176776456064792
1.176765793401843
1.176751191473673
1.176731979802985
1.176707586211917
1.176677558963204
1.176641602706925
1.176599601892711
1.176551628882127
1.176497945520777
1.176439038563815
1.176375790980068
1.176309721406083
1.17624340151472
1.176182134037495
1.176135855764602
1.176112168328445
1.176105061715488
1.176104466048239
1.176105343193758
1.176107240640551
1.17611084894395
1.176116490508863
1.176124734609955
1.176136250133536
1.176151652658123
1.176171456037412
1.176196078146781
1.176225825508973
1.176260864673298
1.176301208386147
1.176346717764004
1.176397114984783
1.176451982053826
1.176510671917283
1.176572141722353
1.176634711660348
1.176695088597537
1.176746300531522
1.176778991339413
1.176792284105743
1.17679447955875
1.176793961227601
1.176792496855073
1.176789656984864
1.176785098785332
1.176778361710387
1.176768808510953
1.176755706008845
1.176738353264832
1.176716117209459
1.1766884525712
1.176654955127707
1.176615418931541
1.17656985759913
1.176518489605243
1.176461729813292
1.176400301386018
1.176335476808588
1.176269358618659
1.176206035616888
1.176153854913463
1.176122649270859
1.176111265819304
1.176109325345797
1.176109797143255
1.176111387293854
1.176114600871795
1.176119711348241
1.176127174869941
1.176137577731926
1.176151517665988
1.176169545469895
1.176192157821568
1.176219761855081
1.176252617526156
1.176290803563904
1.176334217995116
1.176382597987914
1.176435548916763
1.176492514111579
1.176552614894444
1.176614440978749
1.176675491042186
1.176730420057861
1.176770083238312
1.176789053635578
1.176794164160013
1.176794352895885
1.176793129021738
1.176790674904186
1.176786426522875
1.17678015548447
1.176771380353772
1.176759481832005
1.176743790343482
1.176723619460264
1.176698311306618
1.176667322492188
1.176630311745035
1.176587186965344
1.176538112697504
1.176483487892497
1.176423959078277
1.176360606703293
1.176295215181343
1.176230948528032
1.176174382743782
1.176135658381653
1.176118723261329
1.176114570673009
1.176114146245518
1.176115347714019
1.176118054466686
1.1761227284995
1.176129651829843
1.176139267711125
1.176152068553555
1.176168548800124
1.176189227212802
1.176214624530295
1.176245166512522
1.176281084728954
1.176322374761682
1.176368804611069
1.176419956043478
1.176475267385341
1.176533942444148
1.176594760818549
1.17665577985815
1.176712937934868
1.1767582865538
1.176784154606405
1.17679294750687
1.176794340407872
1.176793946257636
1.176792056511864
1.176788302275962
1.176782408186977
1.176774056516785
1.176762855759675
1.176748340815025
1.176729939603493
1.176706955042202
1.17667864836226
1.176644409279669
1.176603916404802
1.176557207204005
1.176504663188534
1.176446949523046
1.176385076273293
1.176320624836533
1.176256122593176
1.176196677909313
1.176151659565555
1.176127947229532
1.176120607789773
1.176119443957313
1.176119685989881
1.176121533027241
1.176125415377746
1.176131723543862
1.176140823390953
1.176153022702257
1.176168569107055
1.176187751726975
1.176211023253628
1.176238988552235
1.176272228886175
1.17631107269425
1.176355455590188
1.176404922646355
1.176458765870182
1.176516126299483
1.176575876504468
1.176636433719873
1.176694824674252
1.176744484269112
1.176777073111005
1.176790679675114
1.176793494816062
1.176793858076414
1.176792930577299
1.176790392345229
1.176785594584568
1.176778012988061
1.176767222986845
1.176753000989057
1.176735250324537
1.17671376221284
1.176688033601627
1.176657261487723
1.176620469910156
1.176576832669793
1.176526273451354
1.176470113601038
1.176409335791468
1.176345922551195
1.176269321225581
)
;

boundaryField
{
    inlet
    {
        type            calculated;
        value           uniform 1.176427481426743;
    }
    outlet
    {
        type            calculated;
        value           uniform 1.176234982421046;
    }
    frontAndBack
    {
        type            empty;
    }
}


// ************************************************************************* //
