/*--------------------------------*- C++ -*----------------------------------*\
| =========                 |                                                 |
| \\      /  F ield         | OpenFOAM: The Open Source CFD Toolbox           |
|  \\    /   O peration     | Version:  v2012                                 |
|   \\  /    A nd           | Website:  www.openfoam.com                      |
|    \\/     M anipulation  |                                                 |
\*---------------------------------------------------------------------------*/
FoamFile
{
    version     2.0;
    format      ascii;
    class       volScalarField;
    location    "0.0175";
    object      T;
}
// * * * * * * * * * * * * * * * * * * * * * * * * * * * * * * * * * * * * * //

dimensions      [0 0 0 1 0 0 0];


internalField   nonuniform List<scalar> 
1000
(
300.0078847951009
300.0065245919724
300.0132819195696
300.0184159518736
300.0234326449012
300.0280318190353
300.0323982863329
300.0364122234673
300.0398830261018
300.0422784325308
300.0431966059834
300.0434184108518
300.0433161761338
300.0425703473915
300.040896263871
300.0382831285274
300.0348283739743
300.030687612913
300.0260041471989
300.0208780987472
300.0153877357898
300.009618344304
300.0036732174647
299.9976675283375
299.9917168832039
299.9859308800347
299.9804085847682
299.9752230842554
299.9704009530258
299.9659496148985
299.9620122208793
299.9590629626485
299.957606170624
299.9573426992393
299.9574309906406
299.9577840053804
299.9585802382255
299.9600169551626
299.9622554850067
299.9653607778165
299.9692842621064
299.9738861089511
299.978988256584
299.9844265975039
299.99007597424
299.9958454729326
300.0016593671655
300.0074410871236
300.0131106753852
300.0185990943133
300.0238672331612
300.0288980949363
300.0336353610014
300.0378312968494
300.0408809782801
300.0422901402267
300.0425794433127
300.0425943853306
300.0423604691774
300.0417496875276
300.0405938156285
300.0387360857874
300.0360648287948
300.0325440659384
300.0282253784601
300.0232374244294
300.0177551088712
300.0119608214046
300.0060141864651
300.0000389917811
299.9941247205923
299.9883341932899
299.9827076873892
299.9772639366703
299.9720226490676
299.9670896742486
299.9628320024102
299.9599334669691
299.9587060283581
299.958484481975
299.9585165219285
299.9587752692138
299.9593855356771
299.9604876028446
299.9622219338469
299.9647010130651
299.9679827232343
299.9720532253791
299.9768255579813
299.9821543951805
299.9878628847196
299.9937736408266
299.9997351808762
300.005637418331
300.01141419559
300.0170384388632
300.0225107005369
300.0278189079398
300.032853749264
300.0372735673071
300.0403987701234
300.0417783933493
300.0420761406559
300.0421308692584
300.0419584223822
300.0414893831561
300.0405798705407
300.0390964227782
300.0369224313783
300.0339779015382
300.0302356970161
300.0257326991289
300.0205703946681
300.0149019765149
300.0089083002345
300.0027681661068
299.9966304968696
299.9905973738345
299.9847213149781
299.9790170393056
299.9735058823767
299.9683219371906
299.9638773925777
299.9608814350572
299.9596291874096
299.9593833170987
299.9593713797591
299.9595717224092
299.9600670676429
299.9609755041478
299.9624175224884
299.9645024240169
299.9673088771602
299.9708703081529
299.975165393392
299.9801157290344
299.9855927282597
299.9914343668927
299.9974700298055
300.0035478972172
300.0095553988052
300.0154277861158
300.0211431203539
300.0266800737936
300.0319199338173
300.0365209020472
300.0398264702318
300.0413447493266
300.0417052019925
300.0417965706787
300.0416805778833
300.0413200387727
300.040586897831
300.0393615693113
300.0375340981997
300.0350156903709
300.0317508804562
300.0277297798604
300.0229959857131
300.0176464981416
300.0118222938623
300.0056894796226
299.9994134476478
299.9931343792784
299.986952686375
299.9809282652533
299.9751158545362
299.9696718437095
299.9650116855305
299.9618361136849
299.9604795174518
299.960183535449
299.9601284084995
299.9602772352767
299.9606743057323
299.9614324022018
299.9626566040976
299.9644483868157
299.9668907132127
299.9700357780289
299.9738957250957
299.9784367832249
299.9835783859639
299.9891991620894
299.9951512228988
300.0012817058569
300.0074548955929
300.0135674183269
300.0195542705809
300.0253620573626
300.0308539692638
300.0356870642163
300.0392364893269
300.0409634278706
300.0414041116393
300.0415221605907
300.041458680073
300.0411858600636
300.0405930753431
300.0395700514905
300.0380138399452
300.0358351661815
300.0329664760556
300.0293727528052
300.0250606290243
300.020082718834
300.0145359078075
300.0085522855193
300.0022818780148
299.9958718153192
299.9894499985206
299.983116956523
299.9769681936779
299.971193622109
299.9662328816606
299.9627979011537
299.9612722335964
299.9609156891382
299.9608314389429
299.9609343708197
299.9612499983553
299.9618821249219
299.962927825148
299.9644818536374
299.9666268539991
299.9694235493873
299.9729025576714
299.9770583073798
299.9818456062096
299.9871803678733
299.9929464980631
299.9990099294401
300.0052363026327
300.0115055276417
300.0177218779602
300.0238022647401
300.0295914849807
300.0347303027646
300.0385958254035
300.0405987469765
300.0411479197446
300.0412810367802
300.0412672637828
300.0410671032733
300.04059092164
300.0397354205236
300.0384033728491
300.0365069554461
300.0339731804362
300.030753042312
300.0268298789948
300.0222245993038
300.0169974233881
300.0112448801576
300.0050898798854
299.9986666934737
299.9921080981291
299.9855375369334
299.9790808871538
299.9729530402908
299.9676184047185
299.9638207710846
299.962033177359
299.9615866845314
299.9614829481052
299.9615438036919
299.9617918532173
299.9623185219098
299.9632145976657
299.9645688856809
299.9664622521288
299.9689598015744
299.97210345423
299.9759063095486
299.980348630869
299.9853761389729
299.9909024538318
299.9968176227405
300.0030012564288
300.0093340736556
300.0157060055626
300.0220136246742
300.0280927005724
300.0335743443252
300.0378244832557
300.0401953618895
300.0409156466422
300.0410561683929
300.0410894649513
300.0409462353236
300.0405676686474
300.039853658197
300.0387124051932
300.0370575044283
300.0348129725411
300.0319214206546
300.0283510997261
300.0241006209541
300.0192020017913
300.0137210119644
300.0077521634286
300.0014088157864
299.9948145991397
299.9880988638
299.9814020612656
299.97494573391
299.9692022298193
299.964955104259
299.9627992855465
299.962208095796
299.9620912188458
299.9621099966153
299.9622991176337
299.9627337027591
299.9634994392652
299.9646806356741
299.9663563613948
299.9685937634604
299.971441429005
299.9749247108145
299.9790420381952
299.9837621788607
299.9890241311161
299.994741778745
300.0008130439732
300.0071283787856
300.0135754830822
300.0200407063914
300.0263633057432
300.0321858009494
300.0368638387064
300.0396934959009
300.0406666098257
300.0408376371745
300.0409008041147
300.0408050591258
300.0405096800811
300.039917521817
300.0389409701058
300.0374958088685
300.0355046394725
300.0329047259804
300.0296541900622
300.0257358334323
300.0211602645272
300.0159679128157
300.010227521642
300.0040301772844
299.997483625406
299.9907113390859
299.9838571809727
299.9771361505408
299.9709994947756
299.9662477190553
299.9636068767242
299.9627836098342
299.9626483925294
299.9626289602868
299.9627681889771
299.9631223207707
299.9637726347076
299.9647994636114
299.966281086792
299.9682862758258
299.9708680718202
299.9740600968953
299.9778737400304
299.9822952208395
299.9872840515442
299.9927750883996
299.9986847409035
300.0049172372044
300.0113664536323
300.0179165966022
300.0244160467107
300.030541579156
300.0356569513062
300.0390013831237
300.0403321928907
300.0405730037619
300.0406504367451
300.040595635902
300.0403708937413
300.0398845523276
300.0390526239832
300.0377929229812
300.0360266558092
300.0336868378627
300.0307246746856
300.0271121875033
300.0228443664032
300.0179418093748
300.012451548091
300.0064439165324
300.0000089396755
299.9932582928372
299.9863306205037
299.979423322909
299.9729375408589
299.9676502965771
299.9644164682648
299.963244732107
299.9630473747716
299.9630018864208
299.9630984130144
299.9633786090801
299.9639236728636
299.9648096302261
299.9661132564239
299.9679047517895
299.9702407694223
299.9731612195433
299.9766873173651
299.9808189042458
299.9855321549356
299.9907797658082
299.9964949086554
300.0025962791365
300.0089883958017
300.0155587342696
300.0221644497952
300.0285305752651
300.0340659473627
300.0379625297799
300.0397697271005
300.0401571651446
300.0402374809049
300.0402166537661
300.0400517218512
300.0396589706478
300.038958850157
300.0378722350233
300.036319609331
300.0342306798123
300.0315519527395
300.0282485859449
300.024305295659
300.0197288229093
300.0145499758793
300.0088224748931
300.0026204719565
299.9960413375834
299.9892130930527
299.9823153166614
299.975692236877
299.9700551393605
299.9663256139689
299.964771810459
299.9644678973546
299.9644095486448
299.9644722291669
299.9646907269802
299.9651419951595
299.9658963864794
299.967027616625
299.9686062683972
299.9706910035181
299.9733251769753
299.9765362359484
299.9803339447384
299.9847077179123
299.9896254166347
299.9950354866529
300.0008709579888
300.0070494017658
300.0134685440262
300.0199983594015
300.0264181835478
300.0322241747432
300.0365996910095
300.038941801054
300.0395834735825
300.0396620352743
300.039673146333
300.0395609082142
300.039254816061
300.0386799526027
300.0377609548042
300.0364189277362
300.0345804648657
300.0321867627518
300.0291958718774
300.0255825372832
300.0213397688531
300.016481465378
300.0110432246722
300.0050810535409
299.9986742290027
299.9919346768138
299.9850226418627
299.9782188922292
299.9721319183921
299.9677309005599
299.9655828368483
299.9650422417909
299.9649731881024
299.9650050511825
299.9651711613895
299.9655417726212
299.9661845936077
299.967171105252
299.9685729657096
299.9704519914279
299.9728555668005
299.9758167858816
299.9793536637926
299.9834664619896
299.9881356267626
299.9933224080041
299.9989720067787
300.0050143854469
300.011358687869
300.0178840985829
300.0244056384117
300.0305152638468
300.0354238448546
300.0383788283617
300.0394044520717
300.0395240782162
300.039547983845
300.0394708578397
300.0392298021592
300.0387508019082
300.0379638398875
300.0367907316398
300.0351543343633
300.0329901830503
300.0302504074139
300.0269028273057
300.0229312205133
300.0183378143559
300.013145329989
300.0073966952856
300.0011567272023
299.9945217629231
299.9876343960818
299.9807277910081
299.9743016896293
299.9692907014397
299.9665008025317
299.965618925031
299.9655168104157
299.9655236333703
299.9656475070605
299.9659516772402
299.9664986615381
299.9673569202628
299.9685988116991
299.9702895997921
299.9724807562476
299.9752099990338
299.9785016935867
299.9823647571913
299.9867900656166
299.9917497188565
299.9971992765413
300.0030794684138
300.009310514435
300.0157825775497
300.0223380055555
300.0286616993834
300.0340509539238
300.0376310983513
300.0391542087551
300.0394043887209
300.0394245302589
300.0393731368497
300.0391875920731
300.0387928963181
300.0381239821731
300.0371046412832
300.035655568904
300.0337074551181
300.031206562936
300.0281141064752
300.0244059336757
300.0200745682166
300.0151317752357
300.0096091667368
300.0035589549439
299.9970627593612
299.9902460937284
299.9833057009405
299.9766382121209
299.9710774028958
299.967602730043
299.9662631470589
299.966052386184
299.9660490077546
299.9661387757739
299.9663856775117
299.966848313714
299.9675908909429
299.9686852633767
299.9701998623396
299.9721903301687
299.9746986422328
299.9777545567792
299.9813743598983
299.9855579621606
299.9902872000421
299.9955269634662
300.0012270685735
300.0073183276454
300.0137035881032
300.0202447268336
300.0266943863174
300.0324796337725
300.0366796094789
300.0387916856181
300.0392957242779
300.0393039202049
300.0392770929457
300.0391308145884
300.038805552416
300.0382379118656
300.0373563357149
300.0360809898597
300.0343374955796
300.0320655343248
300.0292197522278
300.0257690301082
300.0216976858457
300.0170079002605
300.0117212125988
300.0058791676204
299.9995496197884
299.9928409487113
299.9859229483209
299.9791103629826
299.9730912009659
299.9689147429797
299.9670137176207
299.966591512461
299.9665723572464
299.9666368644972
299.9668354743832
299.9672267353206
299.9678685817827
299.9688301823921
299.9701823175092
299.9719847539023
299.9742835554291
299.9771131283377
299.9804959785948
299.984439956607
299.9889359271306
299.9939575795069
299.9994631234173
300.0053939220506
300.0116649411448
300.0181518567869
300.0246543826624
300.0307386795669
300.035531892915
300.0382734795051
300.0391505625749
300.0392245702805
300.0391931416344
300.0390739174128
300.0388051124687
300.0383237970121
300.0375632247829
300.0364445402103
300.0348903295048
300.0328351118657
300.0302274092972
300.0270290384118
300.0232163155497
300.0187825397133
300.0137400320247
300.0081207957227
300.0019800353701
299.995410259319
299.9885604573741
299.9816827035689
299.9753149020715
299.9704708919824
299.9679213052027
299.9671617272818
299.9671004369452
299.9671494124
299.9673062191282
299.9676361760202
299.9681899944061
299.9690324981389
299.9702353367448
299.9718620614946
299.9739626771103
299.9765756231953
299.9797286101011
299.9834363353717
299.9876977620842
299.9924950494965
299.9977947246242
300.0035474529365
300.0096791956954
300.0160795003485
300.0225827868928
300.0288598712777
300.0341660970314
300.0375681579481
300.0389587192363
300.0391650389482
300.0391246914381
300.0390314142526
300.0388050320461
300.0383919473097
300.0377326164637
300.0367521728659
300.0353713168469
300.0335196205776
300.0311393912373
300.028185667498
300.0246274713646
300.0204500843591
300.0156571176157
300.0102714673148
300.004337216398
299.9979314532862
299.9911832436092
299.9843016645264
299.9777063203271
299.9722744730845
299.9690058768285
299.9677954143174
299.9676193875675
299.9676596811582
299.9677802607903
299.9680587677156
299.9685374095254
299.9692751327406
299.970342113098
299.9718054336153
299.973719464909
299.9761264382676
299.9790582743894
299.9825352047451
299.986563169946
299.9911322780582
299.9962169225418
300.0017760692038
300.0077480355334
300.014038079769
300.0205008892685
300.0268749480471
300.0325856989267
300.0366634770622
300.0386414181201
300.0390916837442
300.0390869306814
300.0389998267406
300.0388016078507
300.038443146785
300.0378675697459
300.0370070609838
300.0357825942908
300.0341195775945
300.0319549722496
300.0292375839061
300.0259291485368
300.0220071797611
300.0174671431466
300.0123235645955
300.0066111748691
300.0003925148338
299.9937770384548
299.9869448380094
299.9802239441618
299.9743125644077
299.9702950651419
299.9685313203565
299.9681446120106
299.9681559485997
299.9682536067056
299.9684892373425
299.9689058131351
299.9695539233867
299.9704997338285
299.9718122101392
299.9735501429177
299.9757604096716
299.9784795673631
299.9817328921122
299.9855320088301
299.9898733608349
299.99473800689
300.0000924954883
300.0058862950157
300.0120386884535
300.0184220044049
300.0248278125248
300.0308224313156
300.0355309576016
300.0381522304338
300.0390075079384
300.0390729671271
300.0389888330801
300.038819994557
300.0385000331981
300.0379877755125
300.0372252803585
300.0361372909022
300.0346473381491
300.0326869982786
300.0301978727863
300.0271338467181
300.0234647560864
300.0191787770634
300.0142832549767
300.0088048670537
300.0027932409164
299.9963384417115
299.9895954191409
299.9828266184855
299.9765732708628
299.9718496748542
299.9694318635424
299.9687064754075
299.9686456732409
299.968735204261
299.9689288798557
299.9692971861963
299.9698730294403
299.9707145129263
299.9718899057947
299.9734620333367
299.9754833343187
299.9779964468685
299.9810326386612
299.9846088855101
299.9887264603691
299.9933711563409
299.9985145837437
300.0041140463321
300.0101034729796
300.0163764070799
300.0227614057607
300.0289224206729
300.0341480577895
300.0374837293168
300.0388400658235
300.0390640787499
300.0390111893828
300.0388617697943
300.0385720007432
300.0381068996634
300.0374194714956
300.0364446899607
300.0351077384131
300.0333370865312
300.031068124824
300.0282451968364
300.0248270319381
300.0207925845705
300.0161432076512
300.0109011541479
300.0051087158545
299.9988396481175
299.9922237746865
299.9854756511428
299.979012590028
299.9736865993659
299.9705014187012
299.9693394886179
299.9691414196787
299.9691895754541
299.9693518828826
299.9696798966603
299.9702015290002
299.970963336461
299.9720251586249
299.9734480002213
299.9752880723373
299.9775960581846
299.9804134966367
299.9837668991677
299.9876642749697
299.9920951856421
299.997032772413
300.0024367248052
300.0082501958134
300.0143834811681
300.0206926371527
300.0269224048815
300.0325273861386
300.0365745276031
300.0385101917582
300.0390316462497
300.039050903078
300.0389260231992
300.0386756148539
300.038242127025
300.0376022529331
300.0367068653424
300.0354927682966
300.033891633184
300.0318334080835
300.0292509492284
300.0260887881745
300.0223120733771
300.0179113723714
300.0129034362675
300.0073289337045
300.0012537989963
299.9947882549457
299.9881143830438
299.9815550954965
299.9757815998294
299.9718290169736
299.9701004278063
299.9696765655129
299.9696332424762
299.9697558766495
299.9700321569547
299.9705092395248
299.9712159077504
299.9721974012585
299.9735039753732
299.9751860904486
299.9772966858554
299.9798888984189
299.9830061652343
299.9866720970801
299.9908862133656
299.9956248023458
300.0008451441927
300.0064898813958
300.0124777267152
300.0186841107588
300.0249107771139
300.0307432714479
300.0353705813111
300.0380100678054
300.0389072561752
300.0390493806755
300.0390091621089
300.0388163388226
300.0384332707966
300.0378318592633
300.0369796812918
300.0358367847447
300.034355706251
300.0324780638462
300.030132716137
300.027244261721
300.0237504016448
300.0196183077585
300.0148517640112
300.0094896589196
300.0035998275774
299.997285307891
299.9907074581653
299.9841242068293
299.9780569467478
299.9734619922468
299.9710416734536
299.970292548669
299.9701737721124
299.970198503834
299.9703870760445
299.9707833854638
299.9714272799749
299.9723560898342
299.9736012101277
299.9751878949564
299.977145636346
299.9795206276167
299.9823746084018
299.9857669348512
299.9897311786357
299.9942608101009
299.9993094267945
300.0048048384496
300.0106595107387
300.0167584633783
300.0229400630799
300.0289006179791
300.0339698724338
300.0372965476708
300.0386853817885
300.0389716912121
300.0390065432925
300.0389063069852
300.038637288654
300.0381354467159
300.0373474433893
300.0362275652821
300.0347489048536
300.0329021466179
300.0306803320727
300.0280596900541
300.0249772830881
300.0213110410042
300.016900905188
300.0116404105082
300.0056323072848
299.9992597800896
299.9934740232403
299.987740482653
)
;

boundaryField
{
    inlet
    {
        type            fixedValue;
        value           uniform 300;
    }
    outlet
    {
        type            temperatureOutletNSCBC;
        pInf            101325;
        gamma           1.4;
        etaAc           1;
        fieldInf        1;
        lInf            2.25;
        value           uniform 299.9851599381448;
    }
    frontAndBack
    {
        type            empty;
    }
}


// ************************************************************************* //
