/*--------------------------------*- C++ -*----------------------------------*\
| =========                 |                                                 |
| \\      /  F ield         | OpenFOAM: The Open Source CFD Toolbox           |
|  \\    /   O peration     | Version:  v2012                                 |
|   \\  /    A nd           | Website:  www.openfoam.com                      |
|    \\/     M anipulation  |                                                 |
\*---------------------------------------------------------------------------*/
FoamFile
{
    version     2.0;
    format      ascii;
    class       volVectorField;
    location    "0.0175";
    object      U;
}
// * * * * * * * * * * * * * * * * * * * * * * * * * * * * * * * * * * * * * //

dimensions      [0 1 -1 0 0 0 0];


internalField   nonuniform List<vector> 
1000
(
(-0.0007081975763709751 0 0)
(0.03073349643804762 0 0)
(0.0385581910573119 0 0)
(0.05365771101996999 0 0)
(0.06761106666884523 0 0)
(0.0806685390669559 0 0)
(0.09184966394745095 0 0)
(0.1014403308648882 0 0)
(0.1095530951890156 0 0)
(0.1149650451359261 0 0)
(0.1165964591459822 0 0)
(0.1165344172931328 0 0)
(0.1157207143188441 0 0)
(0.1133141061489896 0 0)
(0.1085904809358617 0 0)
(0.1013312304799762 0 0)
(0.09179455720198137 0 0)
(0.08041473517077208 0 0)
(0.06756059702698497 0 0)
(0.05348481129134292 0 0)
(0.03839534798762292 0 0)
(0.02252963677284319 0 0)
(0.006175486875943922 0 0)
(-0.01035166507398733 0 0)
(-0.02673760127653573 0 0)
(-0.04267978942885538 0 0)
(-0.05789940503633816 0 0)
(-0.07219019434596273 0 0)
(-0.08547812521512414 0 0)
(-0.09776312419154419 0 0)
(-0.1086845717927844 0 0)
(-0.1168526513173328 0 0)
(-0.120801541757804 0 0)
(-0.1214962714525381 0 0)
(-0.1213708254391088 0 0)
(-0.120696434619244 0 0)
(-0.1188687153305309 0 0)
(-0.1152773037916899 0 0)
(-0.1094386840752457 0 0)
(-0.1011245494845723 0 0)
(-0.09044039198673283 0 0)
(-0.07776530254913096 0 0)
(-0.0635970219230783 0 0)
(-0.04840151670273572 0 0)
(-0.03254229282187879 0 0)
(-0.01629432021743877 0 0)
(0.000103291619882089 0 0)
(0.01640547282969087 0 0)
(0.03235892940052096 0 0)
(0.04774879262135882 0 0)
(0.06245568303799136 0 0)
(0.07643145587706987 0 0)
(0.08953540977190282 0 0)
(0.1010915138964736 0 0)
(0.1093328108471965 0 0)
(0.1128932548238387 0 0)
(0.1134937396055081 0 0)
(0.1131706965591594 0 0)
(0.1125050465548567 0 0)
(0.1108940176618124 0 0)
(0.1078669683008501 0 0)
(0.1029380266450425 0 0)
(0.09574657226360136 0 0)
(0.08615322086433483 0 0)
(0.07427709475519592 0 0)
(0.06046721279311133 0 0)
(0.04521433237369144 0 0)
(0.02903937185702919 0 0)
(0.01240553074956214 0 0)
(-0.004321120826723428 0 0)
(-0.02086999911600828 0 0)
(-0.03704774259242107 0 0)
(-0.05273112991524904 0 0)
(-0.06786596640521106 0 0)
(-0.08239842919544604 0 0)
(-0.09604450550778552 0 0)
(-0.1077956628337271 0 0)
(-0.1156678748598741 0 0)
(-0.1187748828564031 0 0)
(-0.1192117023868557 0 0)
(-0.1190036480135639 0 0)
(-0.1184086774068432 0 0)
(-0.1169787932271559 0 0)
(-0.1142787352340433 0 0)
(-0.1098670452612574 0 0)
(-0.1033762849834155 0 0)
(-0.09459855109517443 0 0)
(-0.0835371342229307 0 0)
(-0.07041351069124782 0 0)
(-0.05562718322228247 0 0)
(-0.03967942886307987 0 0)
(-0.02308394565934672 0 0)
(-0.006289847027220147 0 0)
(0.01036500199148829 0 0)
(0.02666518806212042 0 0)
(0.04250914250489401 0 0)
(0.05787953651672416 0 0)
(0.07272996047300295 0 0)
(0.08675416335601456 0 0)
(0.09898292274394463 0 0)
(0.1074368923026793 0 0)
(0.1109098618642333 0 0)
(0.1114684808849499 0 0)
(0.1111506207306074 0 0)
(0.1105531268906223 0 0)
(0.1092370470795914 0 0)
(0.1068294329863872 0 0)
(0.1029177481735462 0 0)
(0.0971292708335259 0 0)
(0.08919463657866188 0 0)
(0.07900005212731506 0 0)
(0.0666220884182049 0 0)
(0.05233113325944198 0 0)
(0.03655536327105065 0 0)
(0.0198117211845956 0 0)
(0.002619467480001059 0 0)
(-0.01458206240858044 0 0)
(-0.0314856207694978 0 0)
(-0.04792812946470183 0 0)
(-0.06385896719208664 0 0)
(-0.07921197931138137 0 0)
(-0.09361329156187709 0 0)
(-0.1059013873177772 0 0)
(-0.1140129911329008 0 0)
(-0.1171588883182743 0 0)
(-0.1176511513285197 0 0)
(-0.1173731251229349 0 0)
(-0.1168616738072736 0 0)
(-0.1156573568632052 0 0)
(-0.1134390414388278 0 0)
(-0.1098244670074257 0 0)
(-0.1044560060162353 0 0)
(-0.0970635221265124 0 0)
(-0.08750959408767311 0 0)
(-0.07581942841385382 0 0)
(-0.0621902671350866 0 0)
(-0.0469738658904646 0 0)
(-0.03062982161429093 0 0)
(-0.01365457086361026 0 0)
(0.003498563972074228 0 0)
(0.02048155961930486 0 0)
(0.03708117076306337 0 0)
(0.05320852624133476 0 0)
(0.068782861157223 0 0)
(0.08345785085539521 0 0)
(0.09624365404663796 0 0)
(0.1052390410194076 0 0)
(0.1091175167833109 0 0)
(0.1097868263307117 0 0)
(0.1095284746932158 0 0)
(0.1089733362891078 0 0)
(0.1078555467524855 0 0)
(0.1058510746991501 0 0)
(0.1026001994810967 0 0)
(0.0977581115309361 0 0)
(0.09103083292877175 0 0)
(0.08221884740990422 0 0)
(0.07125725207750121 0 0)
(0.05824134641239231 0 0)
(0.04342837225737129 0 0)
(0.02721165838195029 0 0)
(0.01006647838941008 0 0)
(-0.007525561281598011 0 0)
(-0.02514943858902203 0 0)
(-0.04250201502531312 0 0)
(-0.05939678037168802 0 0)
(-0.07566570504049697 0 0)
(-0.09086195050710102 0 0)
(-0.1037902693584535 0 0)
(-0.11241532587382 0 0)
(-0.115867712489009 0 0)
(-0.1164409186420207 0 0)
(-0.1161815086234535 0 0)
(-0.1157088768171125 0 0)
(-0.1146685117038912 0 0)
(-0.1127818782651358 0 0)
(-0.1097189034137033 0 0)
(-0.1051513576611288 0 0)
(-0.09879844618558963 0 0)
(-0.09046625474157224 0 0)
(-0.08007750840858176 0 0)
(-0.06769224500676391 0 0)
(-0.05351407182131417 0 0)
(-0.03787534444161463 0 0)
(-0.02119705661858785 0 0)
(-0.003926646992128989 0 0)
(0.01352730964627141 0 0)
(0.03084167664899615 0 0)
(0.04779937875868992 0 0)
(0.06421883406729804 0 0)
(0.0796876103758434 0 0)
(0.09319857865625583 0 0)
(0.1029461111785657 0 0)
(0.1074452466901184 0 0)
(0.1082966599632769 0 0)
(0.1081308335008419 0 0)
(0.1076064645099932 0 0)
(0.1066343952042746 0 0)
(0.1049178368276547 0 0)
(0.1021454200320599 0 0)
(0.09800689329245127 0 0)
(0.09221199040669815 0 0)
(0.08452548251196745 0 0)
(0.07480612940727015 0 0)
(0.06303657905889504 0 0)
(0.04933806778730851 0 0)
(0.03396759542462344 0 0)
(0.01729303976652625 0 0)
(-0.0002563806655440767 0 0)
(-0.01825086030586807 0 0)
(-0.03630930863312135 0 0)
(-0.05412587009545575 0 0)
(-0.07141073026508769 0 0)
(-0.08760992609432852 0 0)
(-0.1014423234920777 0 0)
(-0.1108453717926415 0 0)
(-0.1147955052895558 0 0)
(-0.1154895873401297 0 0)
(-0.1152845378462237 0 0)
(-0.1148291095211654 0 0)
(-0.1139093181898469 0 0)
(-0.1122720833891779 0 0)
(-0.1096259202428493 0 0)
(-0.1056732546708324 0 0)
(-0.1001390633226046 0 0)
(-0.09280577112691837 0 0)
(-0.08354090832588924 0 0)
(-0.07231796065475679 0 0)
(-0.05922989491201906 0 0)
(-0.04449086551542517 0 0)
(-0.02841919558727337 0 0)
(-0.01139781160580583 0 0)
(0.006177425795967561 0 0)
(0.0239407021288634 0 0)
(0.04158718300796917 0 0)
(0.05884548836691778 0 0)
(0.0752389929901025 0 0)
(0.08970137520805375 0 0)
(0.1004282125591936 0 0)
(0.1057573628011897 0 0)
(0.1068956089759656 0 0)
(0.1068356538284118 0 0)
(0.1063356267151308 0 0)
(0.1054848136731563 0 0)
(0.1039870050640608 0 0)
(0.101578883359425 0 0)
(0.0979835102255317 0 0)
(0.09292672499754033 0 0)
(0.08616281623675472 0 0)
(0.07750968883409844 0 0)
(0.06687837361448536 0 0)
(0.05429162128831427 0 0)
(0.03989193056325049 0 0)
(0.02393509929828496 0 0)
(0.006762952463563142 0 0)
(-0.01123949191789805 0 0)
(-0.02968214760268975 0 0)
(-0.04819508419411325 0 0)
(-0.06639972728328314 0 0)
(-0.08366197049451495 0 0)
(-0.09861821693709949 0 0)
(-0.1091148905334109 0 0)
(-0.1138442236045274 0 0)
(-0.1147638304223997 0 0)
(-0.1146369457435551 0 0)
(-0.1141984703211993 0 0)
(-0.1133723845954254 0 0)
(-0.1119219878013132 0 0)
(-0.1095945239420158 0 0)
(-0.1061238915653778 0 0)
(-0.1012488729799909 0 0)
(-0.09474407216388399 0 0)
(-0.08644604047090819 0 0)
(-0.0762723612779662 0 0)
(-0.06423673979512343 0 0)
(-0.05045826455376355 0 0)
(-0.03515815657058045 0 0)
(-0.01863778397900312 0 0)
(-0.001242242869159905 0 0)
(0.01667290425646102 0 0)
(0.03476736486592773 0 0)
(0.05271318864785499 0 0)
(0.07000051760087615 0 0)
(0.08552501508037845 0 0)
(0.09744173876049407 0 0)
(0.1038831598417325 0 0)
(0.1055110793288719 0 0)
(0.1055638453877051 0 0)
(0.1051145084347994 0 0)
(0.1043697250465299 0 0)
(0.103049943543793 0 0)
(0.1009284174490816 0 0)
(0.09776221112717701 0 0)
(0.09330048107976933 0 0)
(0.08730023150162974 0 0)
(0.07955832277816742 0 0)
(0.06994058754416493 0 0)
(0.05840094059025108 0 0)
(0.04499315691261045 0 0)
(0.02987468997473416 0 0)
(0.01329533610616031 0 0)
(-0.004429318826487901 0 0)
(-0.02294293233430264 0 0)
(-0.04186388464848236 0 0)
(-0.06077376865531845 0 0)
(-0.07901463873119016 0 0)
(-0.09519479101129155 0 0)
(-0.1070460710398044 0 0)
(-0.1128731732596873 0 0)
(-0.114187549185712 0 0)
(-0.1141694329402242 0 0)
(-0.1137624297381054 0 0)
(-0.113032066034132 0 0)
(-0.1117403070658621 0 0)
(-0.1096708373406599 0 0)
(-0.1065866504804085 0 0)
(-0.1022457478179885 0 0)
(-0.09642681690149264 0 0)
(-0.08895278337600224 0 0)
(-0.07970725747170511 0 0)
(-0.06864860252373506 0 0)
(-0.0558223945688928 0 0)
(-0.04136667331073086 0 0)
(-0.02550278663769512 0 0)
(-0.008511379793361598 0 0)
(0.009291962385032899 0 0)
(0.02757111380033002 0 0)
(0.04597357615016888 0 0)
(0.06399796389651077 0 0)
(0.08057237039768747 0 0)
(0.09380907461572151 0 0)
(0.1016354419455733 0 0)
(0.1040493974245736 0 0)
(0.1042387783159954 0 0)
(0.103886950715981 0 0)
(0.1032315445731755 0 0)
(0.1020696329122377 0 0)
(0.1001868802194288 0 0)
(0.09737012976509533 0 0)
(0.09339445557119323 0 0)
(0.08802749869201285 0 0)
(0.08105923384333882 0 0)
(0.07232977028915337 0 0)
(0.06174670874553013 0 0)
(0.04929758684528878 0 0)
(0.03505934067316516 0 0)
(0.01919801022905161 0 0)
(0.001954315048086397 0 0)
(-0.01637153719879661 0 0)
(-0.03542307298306076 0 0)
(-0.05477658927036459 0 0)
(-0.07379303884853199 0 0)
(-0.09114437205320147 0 0)
(-0.1045100447238145 0 0)
(-0.1117699941981041 0 0)
(-0.1137646679186832 0 0)
(-0.1138947471535511 0 0)
(-0.1135379601726168 0 0)
(-0.1129160759447914 0 0)
(-0.1117725421200891 0 0)
(-0.1099277959247562 0 0)
(-0.1071723456823005 0 0)
(-0.1032827122007042 0 0)
(-0.09804493358473622 0 0)
(-0.09127743374380602 0 0)
(-0.08284572736657847 0 0)
(-0.0726731128682207 0 0)
(-0.06075229720667689 0 0)
(-0.04715489263746536 0 0)
(-0.032031238427012 0 0)
(-0.01559637296721852 0 0)
(0.001886543749150047 0 0)
(0.02011072642821623 0 0)
(0.03872684859428158 0 0)
(0.05726776067741499 0 0)
(0.07476292788406 0 0)
(0.08933017471709527 0 0)
(0.09871819329944073 0 0)
(0.1022498339217884 0 0)
(0.1026760402758628 0 0)
(0.1024362958650258 0 0)
(0.1018730755648794 0 0)
(0.1008654738466015 0 0)
(0.09919912483133354 0 0)
(0.09668186885939808 0 0)
(0.0931122697632295 0 0)
(0.08827416789082318 0 0)
(0.08196111611533029 0 0)
(0.07400124932551819 0 0)
(0.06427291461286264 0 0)
(0.05271689375270006 0 0)
(0.03934812747379101 0 0)
(0.02426199612317735 0 0)
(0.007629179136514286 0 0)
(-0.01031179550402253 0 0)
(-0.02924830116972055 0 0)
(-0.0487790942154018 0 0)
(-0.06832131356515607 0 0)
(-0.08669909399873785 0 0)
(-0.1016484113506057 0 0)
(-0.1106535562796952 0 0)
(-0.1137121831319962 0 0)
(-0.1140624145669266 0 0)
(-0.1138005749662704 0 0)
(-0.1132831252175073 0 0)
(-0.1122967329416119 0 0)
(-0.1106678414148713 0 0)
(-0.108209949300724 0 0)
(-0.1047183330046563 0 0)
(-0.09998881322430606 0 0)
(-0.09384175511074555 0 0)
(-0.08613452363390652 0 0)
(-0.076768500034638 0 0)
(-0.0656989261453344 0 0)
(-0.05294609432837919 0 0)
(-0.03860075183881372 0 0)
(-0.02281818014689483 0 0)
(-0.00580760108203568 0 0)
(0.01216726924172557 0 0)
(0.03077970109526833 0 0)
(0.0496001179998099 0 0)
(0.06780218107436778 0 0)
(0.08362859660665484 0 0)
(0.0946944182146684 0 0)
(0.09969310673565183 0 0)
(0.1005720721260549 0 0)
(0.1004561398815018 0 0)
(0.09999606915863773 0 0)
(0.09914935347009439 0 0)
(0.09769401499132785 0 0)
(0.09545710396864059 0 0)
(0.09226164648906908 0 0)
(0.08791068470336361 0 0)
(0.08220696948314229 0 0)
(0.07497707923022773 0 0)
(0.06608582956529049 0 0)
(0.05544669716036342 0 0)
(0.0430331366590213 0 0)
(0.02888813856082907 0 0)
(0.01312573120200693 0 0)
(-0.00407190804670253 0 0)
(-0.02244468656093499 0 0)
(-0.04163152471807219 0 0)
(-0.06110929950120572 0 0)
(-0.07987363753399034 0 0)
(-0.09584337289534761 0 0)
(-0.1063144086724986 0 0)
(-0.1105379007944346 0 0)
(-0.1112129149372982 0 0)
(-0.1110555117292937 0 0)
(-0.1106395299754317 0 0)
(-0.1098080211038431 0 0)
(-0.1083897285426606 0 0)
(-0.1062194818791882 0 0)
(-0.1031143607446749 0 0)
(-0.09888416068224574 0 0)
(-0.09335718410749179 0 0)
(-0.08639230165453857 0 0)
(-0.07788238118037258 0 0)
(-0.06776067960535223 0 0)
(-0.05601117735714593 0 0)
(-0.04267698710438619 0 0)
(-0.02786065551033088 0 0)
(-0.01171798182668441 0 0)
(0.005538992274908825 0 0)
(0.02362573392717019 0 0)
(0.04216031475148102 0 0)
(0.06048525875571036 0 0)
(0.07710875715423553 0 0)
(0.08962829094777458 0 0)
(0.09625608033452519 0 0)
(0.0978991662048011 0 0)
(0.09793606792060157 0 0)
(0.09759711406775191 0 0)
(0.09692643385070998 0 0)
(0.09569608909146428 0 0)
(0.09375028715132026 0 0)
(0.09093091359378194 0 0)
(0.08705804298906999 0 0)
(0.08194543586626146 0 0)
(0.07542307469920662 0 0)
(0.06734786523235452 0 0)
(0.05761055160554681 0 0)
(0.0461464975575098 0 0)
(0.03294770406366535 0 0)
(0.01806953864258279 0 0)
(0.001631795358782247 0 0)
(-0.01616849411040139 0 0)
(-0.03502642941780912 0 0)
(-0.05448675187998615 0 0)
(-0.07373679975633254 0 0)
(-0.0909918810563088 0 0)
(-0.1034290387839803 0 0)
(-0.1094172707145807 0 0)
(-0.110773292739823 0 0)
(-0.1107516316507715 0 0)
(-0.1104464527212033 0 0)
(-0.1097784477040888 0 0)
(-0.1085670602592606 0 0)
(-0.1066554621564434 0 0)
(-0.1038753305898782 0 0)
(-0.1000461301102928 0 0)
(-0.09500024842455368 0 0)
(-0.08859732711759215 0 0)
(-0.08072585260149551 0 0)
(-0.07130585251344268 0 0)
(-0.06029703448112438 0 0)
(-0.04770786328229952 0 0)
(-0.03359943228938678 0 0)
(-0.0180825123576713 0 0)
(-0.001322012854199243 0 0)
(0.01644169583847327 0 0)
(0.03486958336721752 0 0)
(0.05342536871369247 0 0)
(0.07090384231829706 0 0)
(0.08498336458583483 0 0)
(0.09343396770451924 0 0)
(0.09628457219330713 0 0)
(0.09653464227973714 0 0)
(0.09631861919436312 0 0)
(0.09580798241611209 0 0)
(0.09478003130397515 0 0)
(0.09307965318664228 0 0)
(0.09056061642882 0 0)
(0.08705584167559485 0 0)
(0.08238912924342179 0 0)
(0.07639645198711667 0 0)
(0.06893391637877028 0 0)
(0.05988181976040009 0 0)
(0.04915426653840378 0 0)
(0.03671156075229498 0 0)
(0.02256931968001118 0 0)
(0.006802230416310818 0 0)
(-0.01044435954753682 0 0)
(-0.02892208395582256 0 0)
(-0.04823869969690325 0 0)
(-0.06772462457385435 0 0)
(-0.08592149566682342 0 0)
(-0.100126513883605 0 0)
(-0.1079789141074826 0 0)
(-0.1103258920458553 0 0)
(-0.1105036976211287 0 0)
(-0.1103015876679127 0 0)
(-0.1097943956328207 0 0)
(-0.1087805604344473 0 0)
(-0.1071141312825754 0 0)
(-0.1046366736052175 0 0)
(-0.1011736555284927 0 0)
(-0.09655981887281559 0 0)
(-0.09065657956640934 0 0)
(-0.08335206380577398 0 0)
(-0.07455973871684143 0 0)
(-0.06422431025273688 0 0)
(-0.05233067069741807 0 0)
(-0.03890960171874201 0 0)
(-0.02403772644973995 0 0)
(-0.007840604789834046 0 0)
(0.009487946048592762 0 0)
(0.02765786364219975 0 0)
(0.04621911776110064 0 0)
(0.06424275737833308 0 0)
(0.07968099661669394 0 0)
(0.08997361511157677 0 0)
(0.09434830435907134 0 0)
(0.09503463000522228 0 0)
(0.09493338464831066 0 0)
(0.0945856799584866 0 0)
(0.09376509144570981 0 0)
(0.09231298012322924 0 0)
(0.09008999385281609 0 0)
(0.08693957178764505 0 0)
(0.08269089164472136 0 0)
(0.07718455469548105 0 0)
(0.07028062504044141 0 0)
(0.06185730963671107 0 0)
(0.05181614459951617 0 0)
(0.04009427299054545 0 0)
(0.02667610953673351 0 0)
(0.01159977518218754 0 0)
(-0.005033910505750475 0 0)
(-0.02303108507576868 0 0)
(-0.04205882370674526 0 0)
(-0.0615603918725622 0 0)
(-0.08039658452558868 0 0)
(-0.09615921517975662 0 0)
(-0.1059665780564172 0 0)
(-0.1096598886737756 0 0)
(-0.1101972592600023 0 0)
(-0.1100785330508957 0 0)
(-0.109723549265624 0 0)
(-0.1089102740595275 0 0)
(-0.107489124049257 0 0)
(-0.1053099351800632 0 0)
(-0.102202165399893 0 0)
(-0.09800049844324706 0 0)
(-0.09256613151433186 0 0)
(-0.0857873173644966 0 0)
(-0.0775747292484037 0 0)
(-0.0678645284187063 0 0)
(-0.05662621118266685 0 0)
(-0.04386903141064397 0 0)
(-0.02964357868611726 0 0)
(-0.01404208562540272 0 0)
(0.002784164439651228 0 0)
(0.02058834664108471 0 0)
(0.03898735639463092 0 0)
(0.05728121059649319 0 0)
(0.07381465139080631 0 0)
(0.0858752694793106 0 0)
(0.0919549031211912 0 0)
(0.09342689066960783 0 0)
(0.09347770367780316 0 0)
(0.09326286587730759 0 0)
(0.09265346172411107 0 0)
(0.09145011715567311 0 0)
(0.08952069827171083 0 0)
(0.08671443334336003 0 0)
(0.08286428405408648 0 0)
(0.07781389414759544 0 0)
(0.07142803273316356 0 0)
(0.06358645654959015 0 0)
(0.05418413162174297 0 0)
(0.04314295055079232 0 0)
(0.03042510312568147 0 0)
(0.01604127889403735 0 0)
(5.639434272669097e-05 0 0)
(-0.01738603334662447 0 0)
(-0.0360127720147723 0 0)
(-0.05536027791034188 0 0)
(-0.07454238275161679 0 0)
(-0.09156128165813944 0 0)
(-0.1033503161144482 0 0)
(-0.108682747781244 0 0)
(-0.1098398699894346 0 0)
(-0.1098102411520739 0 0)
(-0.1095959567058132 0 0)
(-0.1089756053994594 0 0)
(-0.1077910326742682 0 0)
(-0.1059001293620298 0 0)
(-0.1031368191784392 0 0)
(-0.09933301238977353 0 0)
(-0.09434630854595009 0 0)
(-0.08806400156340119 0 0)
(-0.08039570254209087 0 0)
(-0.07127260964646923 0 0)
(-0.06065394428837156 0 0)
(-0.04853372245923911 0 0)
(-0.03494321896517265 0 0)
(-0.0199503014745272 0 0)
(-0.003672218026424355 0 0)
(0.01368972812758523 0 0)
(0.0318173491468737 0 0)
(0.05016056756257753 0 0)
(0.06744902554939165 0 0)
(0.08113328055158031 0 0)
(0.08903497446094084 0 0)
(0.0916515254602116 0 0)
(0.09192070686120807 0 0)
(0.09183721952150908 0 0)
(0.091424814476464 0 0)
(0.09046859072389778 0 0)
(0.08883071279753899 0 0)
(0.08636208819154208 0 0)
(0.08289930700421642 0 0)
(0.07828517673389597 0 0)
(0.07238576931847808 0 0)
(0.06508482731302845 0 0)
(0.05627762060527425 0 0)
(0.04587793308454085 0 0)
(0.03383178064935218 0 0)
(0.02012807306817123 0 0)
(0.004803938318485836 0 0)
(-0.0120381806290052 0 0)
(-0.03018246770307036 0 0)
(-0.04924370603395692 0 0)
(-0.06852033620437728 0 0)
(-0.08645268837845804 0 0)
(-0.1001242815178314 0 0)
(-0.1073179231047546 0 0)
(-0.1094111418026573 0 0)
(-0.1095349087006861 0 0)
(-0.1094409193325759 0 0)
(-0.1089955066378963 0 0)
(-0.1080394646672123 0 0)
(-0.1064266315498298 0 0)
(-0.1039963539734507 0 0)
(-0.1005777052158588 0 0)
(-0.09602279420470232 0 0)
(-0.09021613591508457 0 0)
(-0.08306558961798355 0 0)
(-0.07449822275318418 0 0)
(-0.06446567245422136 0 0)
(-0.05295102643614172 0 0)
(-0.03997209235952003 0 0)
(-0.02558103225618475 0 0)
(-0.009869145481411341 0 0)
(0.007005503412764123 0 0)
(0.02477454295770047 0 0)
(0.04298506126329848 0 0)
(0.06069825322474124 0 0)
(0.07579228453982852 0 0)
(0.08555867519504669 0 0)
(0.08960327161057634 0 0)
(0.09025765371080198 0 0)
(0.09032699265024535 0 0)
(0.09007972298754401 0 0)
(0.08936859516615708 0 0)
(0.08801237458357754 0 0)
(0.08587246026859902 0 0)
(0.08278749532460816 0 0)
(0.07859608951327289 0 0)
(0.07316336028929925 0 0)
(0.06637689185519195 0 0)
(0.05813415720401807 0 0)
(0.0483443049256613 0 0)
(0.03694178697132794 0 0)
(0.02389916803559974 0 0)
(0.009233999570227866 0 0)
(-0.006982119296762216 0 0)
(-0.0245866564259543 0 0)
(-0.04326135506696248 0 0)
(-0.06243553417185076 0 0)
(-0.08092656061916238 0 0)
(-0.09623203704817966 0 0)
(-0.1054262150197657 0 0)
(-0.1087719533517743 0 0)
(-0.1092371573816909 0 0)
(-0.1092314604621283 0 0)
(-0.1089390460557068 0 0)
(-0.108199680867288 0 0)
(-0.1068500060225389 0 0)
(-0.1047382039902146 0 0)
(-0.1016924617454277 0 0)
(-0.09755790391928787 0 0)
(-0.09221373901850165 0 0)
(-0.08556507475400603 0 0)
(-0.07753495025434323 0 0)
(-0.06806782070083596 0 0)
(-0.05713699809036929 0 0)
(-0.04474937952827613 0 0)
(-0.03094552411268243 0 0)
(-0.01579906436442765 0 0)
(0.0005631731917948471 0 0)
(0.0179145977084504 0 0)
(0.03588165223165457 0 0)
(0.05376195401288818 0 0)
(0.0699087227896137 0 0)
(0.08148243204390586 0 0)
(0.08714908153941413 0 0)
(0.08857067847839062 0 0)
(0.08874197563645603 0 0)
(0.08863895564236528 0 0)
(0.0881535027961408 0 0)
(0.0870778122869673 0 0)
(0.08526339659242405 0 0)
(0.08254888937805506 0 0)
(0.07877168087372689 0 0)
(0.07379275644479885 0 0)
(0.0675000154975208 0 0)
(0.05979459200195132 0 0)
(0.05058601624694229 0 0)
(0.03980139638172835 0 0)
(0.02739950988529979 0 0)
(0.01338127552476518 0 0)
(-0.002204683988254202 0 0)
(-0.01923593088257418 0 0)
(-0.037450788617418 0 0)
(-0.05638117271953186 0 0)
(-0.07513338929149466 0 0)
(-0.09170391191534662 0 0)
(-0.1029422633732699 0 0)
(-0.107840845042963 0 0)
(-0.1089234514693137 0 0)
(-0.1089648149838608 0 0)
(-0.1088222258779468 0 0)
(-0.108282604121021 0 0)
(-0.1071820902396577 0 0)
(-0.1053722473791601 0 0)
(-0.1026804056154158 0 0)
(-0.09894661425783932 0 0)
(-0.0940468561689132 0 0)
(-0.08788525178711824 0 0)
(-0.08038133743869377 0 0)
(-0.0714711924310886 0 0)
(-0.06111642387455066 0 0)
(-0.04931114909500249 0 0)
(-0.03608430606853232 0 0)
(-0.02149901289105145 0 0)
(-0.005662094617366388 0 0)
(0.01124003870800384 0 0)
(0.02889347763607189 0 0)
(0.0467380272829497 0 0)
(0.06353703735501008 0 0)
(0.07679973636523522 0 0)
(0.08425285128354891 0 0)
(0.08676834159936687 0 0)
(0.08704173724046829 0 0)
(0.0871167331493083 0 0)
(0.0868264679994921 0 0)
(0.08601679428636173 0 0)
(0.0845180626036294 0 0)
(0.08216792695538683 0 0)
(0.07879469898994806 0 0)
(0.07425271700121494 0 0)
(0.06843166570848266 0 0)
(0.06123957580373447 0 0)
(0.05258957294204644 0 0)
(0.04240393207658769 0 0)
(0.03062849918648517 0 0)
(0.01724659710732602 0 0)
(0.002287995624845888 0 0)
(-0.01415483219468569 0 0)
(-0.03187590683133676 0 0)
(-0.05048576484291611 0 0)
(-0.06926883946809555 0 0)
(-0.08668372016227704 0 0)
(-0.09985919837232282 0 0)
(-0.10658670955214 0 0)
(-0.1085483394248785 0 0)
(-0.1086734022965082 0 0)
(-0.1086782116207637 0 0)
(-0.1083183243769412 0 0)
(-0.1074631566883419 0 0)
(-0.1059490696603268 0 0)
(-0.1036028550567517 0 0)
(-0.1002541209210668 0 0)
(-0.09577271828898282 0 0)
(-0.09006561168735217 0 0)
(-0.08305730808907204 0 0)
(-0.07468301352517771 0 0)
(-0.06489524785504273 0 0)
(-0.05367281388939081 0 0)
(-0.04102740277825304 0 0)
(-0.02700675827993911 0 0)
(-0.0116988970755288 0 0)
(0.004740517604998508 0 0)
(0.02203553442957798 0 0)
(0.03972418236826079 0 0)
(0.05689278981876986 0 0)
(0.07153264707874363 0 0)
(0.08086349884083285 0 0)
(0.08463991540194275 0 0)
(0.08534077096707451 0 0)
(0.0854822098729041 0 0)
(0.08534519007183712 0 0)
(0.08479819125114693 0 0)
(0.08362115082839051 0 0)
(0.08164131269021566 0 0)
(0.07867515790495092 0 0)
(0.0745651282690066 0 0)
(0.06919670672262414 0 0)
(0.06248469573531758 0 0)
(0.05435528861647199 0 0)
(0.04474021946920483 0 0)
(0.03358100403679519 0 0)
(0.02084166608098132 0 0)
(0.006526326734645956 0 0)
(-0.009304555358731096 0 0)
(-0.02649407545152018 0 0)
(-0.0447119299050432 0 0)
(-0.06337245346957217 0 0)
(-0.08131742716113788 0 0)
(-0.09612719727140968 0 0)
(-0.1048866312053155 0 0)
(-0.1079605972813465 0 0)
(-0.1084475469408282 0 0)
(-0.1084580652994021 0 0)
(-0.108249352950595 0 0)
(-0.1076254713450635 0 0)
(-0.1064115416458689 0 0)
(-0.1044216071324505 0 0)
(-0.1014645630842419 0 0)
(-0.09739321650574367 0 0)
(-0.09211254415867623 0 0)
(-0.08555840003194595 0 0)
(-0.07767885104807132 0 0)
(-0.06843064558590703 0 0)
(-0.05778444963985051 0 0)
(-0.04573306369008235 0 0)
(-0.032300468575829 0 0)
(-0.01754892418448934 0 0)
(-0.001600461338644229 0 0)
(0.01531242369665887 0 0)
(0.03279416193076913 0 0)
(0.05012263542251684 0 0)
(0.06572410496930925 0 0)
(0.07694830521860652 0 0)
(0.08228653139542397 0 0)
(0.08370425307047384 0 0)
(0.08373861675408334 0 0)
(0.08377273075647222 0 0)
(0.08342652293653889 0 0)
(0.08255566399975318 0 0)
(0.08096541599563034 0 0)
(0.07844086554257636 0 0)
(0.07478767492189069 0 0)
(0.06987090999492969 0 0)
(0.0636096734658548 0 0)
(0.05595104616001689 0 0)
(0.04684971043798165 0 0)
(0.03626164332495715 0 0)
(0.02414890413142493 0 0)
(0.0104940875728468 0 0)
(-0.00468025998801159 0 0)
(-0.02127720454938287 0 0)
(-0.03904592941535547 0 0)
(-0.05749802602357944 0 0)
(-0.07571491791336714 0 0)
(-0.09174352626859381 0 0)
(-0.1026106993992924 0 0)
(-0.1072389256083545 0 0)
(-0.1082597852317211 0 0)
(-0.108198991138833 0 0)
(-0.1080877518497136 0 0)
(-0.1076280969470016 0 0)
(-0.1066884333840132 0 0)
(-0.1050698140062254 0 0)
(-0.1025511304031998 0 0)
(-0.09893786440664587 0 0)
(-0.09410041296408948 0 0)
(-0.08797053521651522 0 0)
(-0.08051931202932683 0 0)
(-0.07173520721943186 0 0)
(-0.06161019740416553 0 0)
(-0.05013715347154783 0 0)
(-0.03731866574061993 0 0)
(-0.0231815905975245 0 0)
(-0.007797696082174293 0 0)
(0.008662261455109356 0 0)
(0.02586323530515524 0 0)
(0.0432231394246443 0 0)
(0.05952608331462152 0 0)
(0.07242876026888809 0 0)
(0.07965096946736777 0 0)
(0.08192116769229756 0 0)
(0.08219232845547723 0 0)
(0.08211086468099864 0 0)
(0.08185654781216668 0 0)
(0.08121756015848079 0 0)
(0.07999868543231527 0 0)
(0.07796017391616741 0 0)
(0.07485211582487969 0 0)
(0.07047102142447337 0 0)
(0.06469055185316229 0 0)
(0.0574592024215092 0 0)
(0.04877520308788521 0 0)
(0.03865193872268915 0 0)
(0.02709034044838859 0 0)
(0.01407355447315698 0 0)
(-0.0004101171440345964 0 0)
(-0.01632775763720574 0 0)
(-0.03352685846460762 0 0)
(-0.05163443183396162 0 0)
(-0.06993075722923275 0 0)
(-0.08687614149192288 0 0)
(-0.09967880357982115 0 0)
(-0.1062756345781577 0 0)
(-0.1080808101887845 0 0)
(-0.1082094982946553 0 0)
(-0.1079885785646154 0 0)
(-0.1075602090778151 0 0)
(-0.1067617032790003 0 0)
(-0.105442392727732 0 0)
(-0.1033841610573899 0 0)
(-0.1003360094893239 0 0)
(-0.09607523524572052 0 0)
(-0.09045172078979968 0 0)
(-0.08340800367176628 0 0)
(-0.07497208208905504 0 0)
(-0.06521831749070546 0 0)
(-0.05421296263054406 0 0)
(-0.04197808431206291 0 0)
(-0.02850070009114649 0 0)
(-0.01377633337718638 0 0)
(0.002119158921342215 0 0)
(0.01893334006162041 0 0)
(0.03618336692266035 0 0)
(0.05292962524300471 0 0)
(0.06716953308832813 0 0)
(0.07640531922967665 0 0)
(0.08013306845759098 0 0)
(0.0808008927678999 0 0)
(0.08066561425510056 0 0)
(0.08037724531564513 0 0)
(0.07973339867972883 0 0)
(0.07863289020597725 0 0)
(0.07693672100148836 0 0)
(0.07442251583436334 0 0)
(0.07080802431887891 0 0)
(0.06581326108808049 0 0)
(0.05922371153653538 0 0)
(0.05093562599323548 0 0)
(0.04098516283546188 0 0)
(0.02955761872809159 0 0)
(0.01692655922894306 0 0)
(0.003242334848886375 0 0)
(-0.01160368689614586 0 0)
(-0.02812570224162907 0 0)
(-0.04526841722969839 0 0)
(-0.0659087954809157 0 0)
)
;

boundaryField
{
    inlet
    {
        type            zeroGradient;
    }
    outlet
    {
        type            velocityOutletNSCBCx;
        pInf            101325;
        gamma           1.4;
        etaAc           1;
        fieldInf        (-1 0 0);
        lInf            2.25;
        value           uniform (-0.07365911540729864 0 0);
    }
    frontAndBack
    {
        type            empty;
    }
}


// ************************************************************************* //
