/*--------------------------------*- C++ -*----------------------------------*\
| =========                 |                                                 |
| \\      /  F ield         | OpenFOAM: The Open Source CFD Toolbox           |
|  \\    /   O peration     | Version:  v2012                                 |
|   \\  /    A nd           | Website:  www.openfoam.com                      |
|    \\/     M anipulation  |                                                 |
\*---------------------------------------------------------------------------*/
FoamFile
{
    version     2.0;
    format      ascii;
    class       volVectorField;
    location    "0.0175";
    object      UMean;
}
// * * * * * * * * * * * * * * * * * * * * * * * * * * * * * * * * * * * * * //

dimensions      [0 1 -1 0 0 0 0];


internalField   nonuniform List<vector> 
1000
(
(0.0005437541109261116 0 0)
(0.0005102461845925153 0 0)
(0.0005098525920379601 0 0)
(0.0004901408180750431 0 0)
(0.0004676736604824363 0 0)
(0.0004303580320871614 0 0)
(0.0003929159698342747 0 0)
(0.0003478080320601069 0 0)
(0.0003027420399660818 0 0)
(0.0002534418936243054 0 0)
(0.0002029140910952235 0 0)
(0.0001511031996390632 0 0)
(9.947616243108317e-05 0 0)
(4.858649217089508e-05 0 0)
(-8.914846341957694e-07 0 0)
(-4.768166541316738e-05 0 0)
(-9.101567081800277e-05 0 0)
(-0.0001297774059371955 0 0)
(-0.0001635073063068954 0 0)
(-0.0001913883230984112 0 0)
(-0.0002131312848269237 0 0)
(-0.0002280778080522288 0 0)
(-0.0002366491654938596 0 0)
(-0.0002380770161735373 0 0)
(-0.0002323333049379853 0 0)
(-0.0002198171457123593 0 0)
(-0.0002004662207072997 0 0)
(-0.0001748246997247339 0 0)
(-0.0001431929590488171 0 0)
(-0.000106002139125222 0 0)
(-6.364948597074406e-05 0 0)
(-1.705813942712368e-05 0 0)
(3.243467900171559e-05 0 0)
(8.290264560733478e-05 0 0)
(0.0001337924188374609 0 0)
(0.0001843568294637756 0 0)
(0.000234189687543342 0 0)
(0.0002828091267528985 0 0)
(0.0003292452495607506 0 0)
(0.0003726045991189188 0 0)
(0.0004119567244880067 0 0)
(0.0004462337740991465 0 0)
(0.0004748998391848824 0 0)
(0.0004972589871162901 0 0)
(0.0005134168385177315 0 0)
(0.0005221613201456149 0 0)
(0.0005242579942667286 0 0)
(0.0005195392904927317 0 0)
(0.0005078880625735755 0 0)
(0.0004896794528668987 0 0)
(0.0004650367660785146 0 0)
(0.0004342205761504344 0 0)
(0.0003975571928316917 0 0)
(0.0003554919984961611 0 0)
(0.0003088250905969551 0 0)
(0.0002594034181072872 0 0)
(0.000208548372659341 0 0)
(0.0001582212302758609 0 0)
(0.0001077630179547389 0 0)
(5.76910959158486e-05 0 0)
(8.654806538118478e-06 0 0)
(-3.882169507883941e-05 0 0)
(-8.367276777975387e-05 0 0)
(-0.0001248558017882515 0 0)
(-0.0001615051924691712 0 0)
(-0.0001926178317663115 0 0)
(-0.0002175831033445922 0 0)
(-0.0002356488668597006 0 0)
(-0.0002471867438610472 0 0)
(-0.0002515625944602621 0 0)
(-0.0002486405779205608 0 0)
(-0.000238928332806356 0 0)
(-0.0002222449108153251 0 0)
(-0.0001990560569475413 0 0)
(-0.0001694053699073997 0 0)
(-0.0001337379965857981 0 0)
(-9.232572731429292e-05 0 0)
(-4.658497802815664e-05 0 0)
(1.955253397439154e-06 0 0)
(5.088275195188924e-05 0 0)
(0.0001007706852889265 0 0)
(0.0001499226505686436 0 0)
(0.0001986903108088586 0 0)
(0.0002464561410048914 0 0)
(0.0002925678856222299 0 0)
(0.0003361466392517108 0 0)
(0.0003765386581940832 0 0)
(0.0004125493651347059 0 0)
(0.0004435131856239661 0 0)
(0.0004684565006640489 0 0)
(0.000487127024080136 0 0)
(0.0004988212906640499 0 0)
(0.0005031001935437758 0 0)
(0.0005006367415380057 0 0)
(0.0004911370889546933 0 0)
(0.0004748658784880404 0 0)
(0.0004519949171097669 0 0)
(0.0004227133913754413 0 0)
(0.0003871290686555639 0 0)
(0.0003459169659068418 0 0)
(0.0002998688848574561 0 0)
(0.000251076080479906 0 0)
(0.0002007337354215029 0 0)
(0.0001511545614381107 0 0)
(0.0001009952042000168 0 0)
(5.144238365696507e-05 0 0)
(2.553925145175526e-06 0 0)
(-4.503522830285271e-05 0 0)
(-9.058323691573468e-05 0 0)
(-0.000133133275157263 0 0)
(-0.0001717469419861634 0 0)
(-0.0002055326349204645 0 0)
(-0.0002335510121697998 0 0)
(-0.000255251330786012 0 0)
(-0.0002696905906260144 0 0)
(-0.0002777598168423956 0 0)
(-0.0002780025595357068 0 0)
(-0.000271081532594277 0 0)
(-0.0002570352806232398 0 0)
(-0.0002361267092702072 0 0)
(-0.0002083905562000246 0 0)
(-0.0001744075677444235 0 0)
(-0.0001343564369946271 0 0)
(-8.977982471025339e-05 0 0)
(-4.23468257603981e-05 0 0)
(5.492165884141299e-06 0 0)
(5.435539159946347e-05 0 0)
(0.0001023639742080744 0 0)
(0.000150471723989686 0 0)
(0.0001973945585298447 0 0)
(0.0002431872629203438 0 0)
(0.0002866915263784905 0 0)
(0.000327498360843195 0 0)
(0.0003645905872216818 0 0)
(0.0003971376788814319 0 0)
(0.000424293118765664 0 0)
(0.0004452913891198103 0 0)
(0.000460092272929923 0 0)
(0.0004669255625618848 0 0)
(0.0004670017887002256 0 0)
(0.0004599863941223691 0 0)
(0.0004457360490297301 0 0)
(0.0004246962399770772 0 0)
(0.0003968831683558399 0 0)
(0.000362603480618237 0 0)
(0.0003223499068550792 0 0)
(0.0002771912819074499 0 0)
(0.0002289159264997197 0 0)
(0.000179353396208181 0 0)
(0.0001296229383646803 0 0)
(8.005787057328802e-05 0 0)
(3.093714633757772e-05 0 0)
(-1.795166313047306e-05 0 0)
(-6.555811366736403e-05 0 0)
(-0.0001115809697726101 0 0)
(-0.0001551714243930387 0 0)
(-0.0001952170350895081 0 0)
(-0.0002311165608294527 0 0)
(-0.0002616803349262824 0 0)
(-0.0002865151881751733 0 0)
(-0.0003041056044228586 0 0)
(-0.0003157758723100855 0 0)
(-0.0003194401696234842 0 0)
(-0.000315617435301367 0 0)
(-0.0003044614552907988 0 0)
(-0.0002860395132641657 0 0)
(-0.0002604954958366187 0 0)
(-0.0002282220777524024 0 0)
(-0.000189773620454477 0 0)
(-0.0001463775535954421 0 0)
(-0.0001001416033879395 0 0)
(-5.289401445712594e-05 0 0)
(-5.824919535706107e-06 0 0)
(4.194804410908806e-05 0 0)
(8.921709430676178e-05 0 0)
(0.0001354677538328746 0 0)
(0.0001808698582470059 0 0)
(0.0002242771988437736 0 0)
(0.0002652601385458162 0 0)
(0.0003030359408694855 0 0)
(0.0003367583847446103 0 0)
(0.0003656247376084694 0 0)
(0.0003887554775903612 0 0)
(0.0004060466986765521 0 0)
(0.0004156344683913082 0 0)
(0.0004183825001311622 0 0)
(0.0004140475269535719 0 0)
(0.0004021951953803424 0 0)
(0.0003832191043972937 0 0)
(0.0003570952133172541 0 0)
(0.0003243618917963461 0 0)
(0.0002851704868468067 0 0)
(0.0002409753558980088 0 0)
(0.0001931836607646833 0 0)
(0.0001443878252804324 0 0)
(9.423531457158907e-05 0 0)
(4.569461939834046e-05 0 0)
(-3.513145014359887e-06 0 0)
(-5.220720420916897e-05 0 0)
(-9.998434563151223e-05 0 0)
(-0.0001462936108554242 0 0)
(-0.0001906556158758927 0 0)
(-0.0002319511682832978 0 0)
(-0.0002694967729783723 0 0)
(-0.0003022544308787309 0 0)
(-0.0003296847281861593 0 0)
(-0.0003504881212381996 0 0)
(-0.0003649858569767319 0 0)
(-0.0003723394771273097 0 0)
(-0.0003718535820801559 0 0)
(-0.0003638079601335782 0 0)
(-0.0003482352038701875 0 0)
(-0.0003251575184451961 0 0)
(-0.0002948886005657984 0 0)
(-0.0002581550636547521 0 0)
(-0.0002160650425905101 0 0)
(-0.0001709171068599871 0 0)
(-0.00012439786002971 0 0)
(-7.85358394950203e-05 0 0)
(-3.107501594965181e-05 0 0)
(1.508189798518051e-05 0 0)
(6.092744071528803e-05 0 0)
(0.0001057330192251507 0 0)
(0.0001490656368492683 0 0)
(0.0001901531711559122 0 0)
(0.0002282984797530457 0 0)
(0.0002629697407412901 0 0)
(0.0002931365747292398 0 0)
(0.0003181922419478363 0 0)
(0.0003372367447507062 0 0)
(0.0003502289467863629 0 0)
(0.00035513325277153 0 0)
(0.0003534252355269627 0 0)
(0.0003441693976163453 0 0)
(0.0003275524343382509 0 0)
(0.0003034654054362122 0 0)
(0.0002724107130409571 0 0)
(0.0002346055889247479 0 0)
(0.0001913631150330742 0 0)
(0.000144232252188613 0 0)
(9.581832227672821e-05 0 0)
(4.604070742135784e-05 0 0)
(-2.29628863008267e-06 0 0)
(-5.155248896746346e-05 0 0)
(-9.984244571340529e-05 0 0)
(-0.0001478907113630098 0 0)
(-0.0001943533549620368 0 0)
(-0.0002393077263288752 0 0)
(-0.0002816658060531135 0 0)
(-0.0003205918484787657 0 0)
(-0.0003552659174235277 0 0)
(-0.0003848568211707622 0 0)
(-0.0004087291236930423 0 0)
(-0.0004255382536217532 0 0)
(-0.0004365418589026416 0 0)
(-0.0004394644931164487 0 0)
(-0.0004346005693324761 0 0)
(-0.0004220349975983622 0 0)
(-0.0004016947887880497 0 0)
(-0.0003738514037796524 0 0)
(-0.0003389236292000224 0 0)
(-0.0002984077862997805 0 0)
(-0.0002542488329278302 0 0)
(-0.0002086984251366566 0 0)
(-0.0001631815600303408 0 0)
(-0.0001172903241534382 0 0)
(-7.149744424012484e-05 0 0)
(-2.600350251179522e-05 0 0)
(1.821314230587549e-05 0 0)
(6.139892555263867e-05 0 0)
(0.0001025590673533643 0 0)
(0.0001409841277232338 0 0)
(0.0001763303328161262 0 0)
(0.0002075732052815145 0 0)
(0.0002342272887307879 0 0)
(0.0002550243987781349 0 0)
(0.0002705642355377471 0 0)
(0.000277823322156842 0 0)
(0.0002786753936192999 0 0)
(0.0002721506806663418 0 0)
(0.0002580637151466655 0 0)
(0.0002362704218733697 0 0)
(0.000207145756045027 0 0)
(0.000171045224927483 0 0)
(0.0001289222819261243 0 0)
(8.262716123228044e-05 0 0)
(3.43653963772198e-05 0 0)
(-1.441968361597754e-05 0 0)
(-6.389770793112376e-05 0 0)
(-0.0001120738222775605 0 0)
(-0.0001603442081538579 0 0)
(-0.0002084164148202271 0 0)
(-0.0002551531860685222 0 0)
(-0.0003004735147948517 0 0)
(-0.0003436266333504843 0 0)
(-0.0003838554369876874 0 0)
(-0.0004200925823446876 0 0)
(-0.0004516687138188029 0 0)
(-0.0004779769907411186 0 0)
(-0.00049743424146333 0 0)
(-0.000511489550293203 0 0)
(-0.0005177146487321904 0 0)
(-0.0005159737518967421 0 0)
(-0.0005065545655372557 0 0)
(-0.0004891248981810109 0 0)
(-0.0004639088246120056 0 0)
(-0.0004311321801276232 0 0)
(-0.0003923265316907471 0 0)
(-0.0003492789805891968 0 0)
(-0.0003047129892711156 0 0)
(-0.0002593542045621235 0 0)
(-0.0002153061297876999 0 0)
(-0.0001691611049718358 0 0)
(-0.0001245532560612179 0 0)
(-8.060228831122273e-05 0 0)
(-3.781723137669313e-05 0 0)
(3.475809331237085e-06 0 0)
(4.217823477698723e-05 0 0)
(7.794714421303475e-05 0 0)
(0.0001101486081738093 0 0)
(0.0001380582796002666 0 0)
(0.0001606755010069244 0 0)
(0.0001779424979596656 0 0)
(0.0001881843588441603 0 0)
(0.0001911682442542087 0 0)
(0.000187300644114542 0 0)
(0.0001757582051958176 0 0)
(0.0001565244798605732 0 0)
(0.0001295855114323186 0 0)
(9.534559325087536e-05 0 0)
(5.47262102458112e-05 0 0)
(9.333993559961091e-06 0 0)
(-3.854390872307032e-05 0 0)
(-8.675557377979724e-05 0 0)
(-0.0001365059234906526 0 0)
(-0.0001839071823075033 0 0)
(-0.0002324777963083991 0 0)
(-0.0002802566694576907 0 0)
(-0.0003273448269208302 0 0)
(-0.0003728974449382777 0 0)
(-0.0004166450639688926 0 0)
(-0.0004579614769804073 0 0)
(-0.0004955702482459639 0 0)
(-0.0005289574177038497 0 0)
(-0.0005571692191972875 0 0)
(-0.000579685816719736 0 0)
(-0.000595283150039025 0 0)
(-0.000605183514858207 0 0)
(-0.0006066460452445237 0 0)
(-0.0006003917501791751 0 0)
(-0.0005858857093712483 0 0)
(-0.0005635232445950712 0 0)
(-0.0005332286333424215 0 0)
(-0.0004962446207419541 0 0)
(-0.0004545352765579631 0 0)
(-0.0004107640775394287 0 0)
(-0.0003660941027774074 0 0)
(-0.0003224663243985834 0 0)
(-0.0002772354511833741 0 0)
(-0.0002332453115483503 0 0)
(-0.0001893527541190323 0 0)
(-0.0001469661899096696 0 0)
(-0.0001056787393139744 0 0)
(-6.666118026662969e-05 0 0)
(-3.043931688349885e-05 0 0)
(2.449159628787271e-06 0 0)
(3.14963207300821e-05 0 0)
(5.579944691331977e-05 0 0)
(7.443934783027067e-05 0 0)
(8.778719040938266e-05 0 0)
(9.275013374284333e-05 0 0)
(9.130151231158641e-05 0 0)
(8.246278123670541e-05 0 0)
(6.58701812670297e-05 0 0)
(4.138928776655822e-05 0 0)
(9.275255324814583e-06 0 0)
(-2.955225026350206e-05 0 0)
(-7.376452876008218e-05 0 0)
(-0.0001209442309352859 0 0)
(-0.0001690296849094203 0 0)
(-0.0002176687508367419 0 0)
(-0.0002662057282555822 0 0)
(-0.0003139126952274334 0 0)
(-0.0003614241505284464 0 0)
(-0.0004085840747624183 0 0)
(-0.000454401178796345 0 0)
(-0.0004984478272606587 0 0)
(-0.0005404766894602462 0 0)
(-0.0005793881775241299 0 0)
(-0.0006142142485876831 0 0)
(-0.0006441749526013068 0 0)
(-0.0006690350824776688 0 0)
(-0.0006866702835788478 0 0)
(-0.0006995331596422002 0 0)
(-0.0007040406445173212 0 0)
(-0.0007006354496914497 0 0)
(-0.0006891615480793327 0 0)
(-0.0006695446583358692 0 0)
(-0.0006418843246718559 0 0)
(-0.0006069640272980571 0 0)
(-0.0005666300303448176 0 0)
(-0.0005235508727093674 0 0)
(-0.0004796715585737857 0 0)
(-0.0004355805171317065 0 0)
(-0.0003924869620489787 0 0)
(-0.0003476944454293349 0 0)
(-0.0003041985869117732 0 0)
(-0.0002618435961136184 0 0)
(-0.000220614143334184 0 0)
(-0.0001811198736935664 0 0)
(-0.000144250523363999 0 0)
(-0.0001106670232355794 0 0)
(-8.048595426847167e-05 0 0)
(-5.461623190420318e-05 0 0)
(-3.408878701230909e-05 0 0)
(-1.85829330627192e-05 0 0)
(-1.089194012539015e-05 0 0)
(-9.938330185263868e-06 0 0)
(-1.585228176328289e-05 0 0)
(-2.971396525894841e-05 0 0)
(-5.127463232925451e-05 0 0)
(-8.089325184550093e-05 0 0)
(-0.0001175567810251945 0 0)
(-0.0001600866022193824 0 0)
(-0.0002062236217863056 0 0)
(-0.000253940721308539 0 0)
(-0.000301444174041766 0 0)
(-0.0003506960882769238 0 0)
(-0.0003970075061581587 0 0)
(-0.0004445514910792612 0 0)
(-0.0004913149751477267 0 0)
(-0.0005372428800017923 0 0)
(-0.0005814201068301924 0 0)
(-0.0006237705287268067 0 0)
(-0.0006635724071959129 0 0)
(-0.0006997328667437975 0 0)
(-0.0007312081356822785 0 0)
(-0.0007578168768498938 0 0)
(-0.0007782536265976549 0 0)
(-0.0007925631807323944 0 0)
(-0.0008006617749825959 0 0)
(-0.0008004539703671654 0 0)
(-0.0007924109644355234 0 0)
(-0.000776111452759819 0 0)
(-0.0007518875942868608 0 0)
(-0.0007201313211798794 0 0)
(-0.0006823990899548435 0 0)
(-0.0006413450834193051 0 0)
(-0.0005992851450767048 0 0)
(-0.0005566655221501926 0 0)
(-0.0005155200042345399 0 0)
(-0.0004721119148136167 0 0)
(-0.0004304669270751796 0 0)
(-0.0003891269050117938 0 0)
(-0.0003492416669960587 0 0)
(-0.0003107523989599165 0 0)
(-0.0002744018753644498 0 0)
(-0.0002412211402990223 0 0)
(-0.0002113568637008377 0 0)
(-0.0001851602923902271 0 0)
(-0.0001636947623767876 0 0)
(-0.0001477750901336212 0 0)
(-0.0001371246146042333 0 0)
(-0.000134998993307178 0 0)
(-0.0001389275662168104 0 0)
(-0.0001503822965200849 0 0)
(-0.0001693963632498305 0 0)
(-0.0001963553327961095 0 0)
(-0.000230714488910002 0 0)
(-0.0002712713679293693 0 0)
(-0.0003160210368673262 0 0)
(-0.0003628539595976969 0 0)
(-0.0004098548484096917 0 0)
(-0.0004577331360222425 0 0)
(-0.0005046367515617405 0 0)
(-0.0005512402877115773 0 0)
(-0.0005972932993141422 0 0)
(-0.0006430333998136483 0 0)
(-0.0006872634733808085 0 0)
(-0.0007296413358298731 0 0)
(-0.0007699137117167564 0 0)
(-0.0008072611108490668 0 0)
(-0.0008401673578018607 0 0)
(-0.0008682640101458876 0 0)
(-0.0008912625467760582 0 0)
(-0.0009070335109593921 0 0)
(-0.0009184168099113134 0 0)
(-0.0009213557013463578 0 0)
(-0.0009163236101398453 0 0)
(-0.0009033163120683401 0 0)
(-0.0008820773543536393 0 0)
(-0.0008532285758569607 0 0)
(-0.0008176681022429578 0 0)
(-0.0007779869983563473 0 0)
(-0.00073660675604627 0 0)
(-0.0006950079901282483 0 0)
(-0.0006534289330033991 0 0)
(-0.0006126160977792328 0 0)
(-0.0005703187964235982 0 0)
(-0.0005294238162978265 0 0)
(-0.0004897902785476053 0 0)
(-0.0004514706678140297 0 0)
(-0.0004148812993389301 0 0)
(-0.000381116226046464 0 0)
(-0.0003507625989049284 0 0)
(-0.0003238393145702216 0 0)
(-0.0003008251385316911 0 0)
(-0.0002835866210489155 0 0)
(-0.0002707325731724095 0 0)
(-0.0002665308736629999 0 0)
(-0.0002683535110220176 0 0)
(-0.0002771658217408604 0 0)
(-0.0002937767630057281 0 0)
(-0.0003180894774782254 0 0)
(-0.0003502519169912655 0 0)
(-0.0003890655363456866 0 0)
(-0.0004326798908379467 0 0)
(-0.0004789338748432183 0 0)
(-0.0005260412125334238 0 0)
(-0.0005729257540705074 0 0)
(-0.000621268414130443 0 0)
(-0.0006666292126533415 0 0)
(-0.0007130089617160458 0 0)
(-0.0007587646661878725 0 0)
(-0.0008033999339698987 0 0)
(-0.0008463427575806889 0 0)
(-0.0008871200566726465 0 0)
(-0.0009256629697632198 0 0)
(-0.0009602722517801814 0 0)
(-0.0009899145840562579 0 0)
(-0.001015001700105876 0 0)
(-0.001033460165286224 0 0)
(-0.001046362838070956 0 0)
(-0.001052763222040999 0 0)
(-0.001050715143419685 0 0)
(-0.001040884947062599 0 0)
(-0.001022643063581546 0 0)
(-0.0009965800291073502 0 0)
(-0.0009634532267369965 0 0)
(-0.0009251983590543848 0 0)
(-0.0008847926905340229 0 0)
(-0.000843912867733299 0 0)
(-0.0008025775188549663 0 0)
(-0.0007629901898746936 0 0)
(-0.0007207520988760826 0 0)
(-0.0006806712087655893 0 0)
(-0.0006409868815175905 0 0)
(-0.0006029232235640086 0 0)
(-0.0005663569982576404 0 0)
(-0.0005320189124890025 0 0)
(-0.0005010990095732904 0 0)
(-0.0004736236979789758 0 0)
(-0.0004495431030453929 0 0)
(-0.0004306474698507026 0 0)
(-0.000416929320243537 0 0)
(-0.0004090209676130616 0 0)
(-0.0004095241558766181 0 0)
(-0.0004161409551049257 0 0)
(-0.000430275170120447 0 0)
(-0.0004521241120930523 0 0)
(-0.0004817215621674901 0 0)
(-0.0005187542157974311 0 0)
(-0.0005608611065504437 0 0)
(-0.0006067902051891494 0 0)
(-0.0006534599063638505 0 0)
(-0.0007002644776671717 0 0)
(-0.0007479414947758119 0 0)
(-0.0007943314404151495 0 0)
(-0.0008403319635795081 0 0)
(-0.0008858601576121623 0 0)
(-0.0009308519004041715 0 0)
(-0.0009743209441322225 0 0)
(-0.001015657176852595 0 0)
(-0.001054891770865688 0 0)
(-0.001091223355418224 0 0)
(-0.001122548827810595 0 0)
(-0.001149109834931844 0 0)
(-0.001170652665775702 0 0)
(-0.00118458322098652 0 0)
(-0.001194513469014964 0 0)
(-0.001195500479435054 0 0)
(-0.001188575582623581 0 0)
(-0.001173498894335953 0 0)
(-0.001150237568286632 0 0)
(-0.001119738008976763 0 0)
(-0.001083267005916453 0 0)
(-0.001044022325104399 0 0)
(-0.001003656837346643 0 0)
(-0.0009632553480901255 0 0)
(-0.0009231791004756731 0 0)
(-0.000883594385754998 0 0)
(-0.0008427382066597881 0 0)
(-0.0008034022949634901 0 0)
(-0.0007655642866528673 0 0)
(-0.0007290655698078729 0 0)
(-0.000694538118377202 0 0)
(-0.0006626722837916469 0 0)
(-0.0006351131805402533 0 0)
(-0.0006098051355340818 0 0)
(-0.0005893805440701424 0 0)
(-0.000574814963186378 0 0)
(-0.0005642860578441361 0 0)
(-0.000563008688086257 0 0)
(-0.0005675432622286556 0 0)
(-0.0005790841333149955 0 0)
(-0.0005985544287611271 0 0)
(-0.0006256071858350427 0 0)
(-0.0006603697782049504 0 0)
(-0.0007012310494597433 0 0)
(-0.0007457505089520969 0 0)
(-0.0007927455007766705 0 0)
(-0.0008393952200541694 0 0)
(-0.0008860059118451955 0 0)
(-0.0009339951970050054 0 0)
(-0.00097869617739176 0 0)
(-0.001024618144400908 0 0)
(-0.001069667232081302 0 0)
(-0.001113602755914521 0 0)
(-0.001155642908426403 0 0)
(-0.001195245672909402 0 0)
(-0.00123315448611074 0 0)
(-0.001265750950668168 0 0)
(-0.00129414170285125 0 0)
(-0.001317993079380505 0 0)
(-0.001334483570554126 0 0)
(-0.001345914234387955 0 0)
(-0.001350428447126525 0 0)
(-0.001346496504776625 0 0)
(-0.001334585230122419 0 0)
(-0.001314413648270676 0 0)
(-0.00128641701135442 0 0)
(-0.001252466402043422 0 0)
(-0.00121367069232068 0 0)
(-0.00117515791026513 0 0)
(-0.001134957230890523 0 0)
(-0.001094980444442071 0 0)
(-0.001056751622732326 0 0)
(-0.00101589650354711 0 0)
(-0.0009773217601829864 0 0)
(-0.0009393608511454632 0 0)
(-0.0009030738559311589 0 0)
(-0.0008685293163469435 0 0)
(-0.0008360655449531491 0 0)
(-0.0008077638851288832 0 0)
(-0.0007820629009749713 0 0)
(-0.0007602494370453904 0 0)
(-0.0007442072331991163 0 0)
(-0.0007328973540176936 0 0)
(-0.0007277190163911802 0 0)
(-0.0007310789091600835 0 0)
(-0.0007404309280646174 0 0)
(-0.0007573987926041259 0 0)
(-0.0007820638660923021 0 0)
(-0.0008142705744077316 0 0)
(-0.0008536223665787124 0 0)
(-0.0008967287785919165 0 0)
(-0.0009437796168513299 0 0)
(-0.0009902161410822888 0 0)
(-0.001036589821602079 0 0)
(-0.001084004642490962 0 0)
(-0.001129917351465235 0 0)
(-0.001175324579824226 0 0)
(-0.001220235659005134 0 0)
(-0.001264578067321793 0 0)
(-0.00130720557123557 0 0)
(-0.0013475616155319 0 0)
(-0.001385737135689394 0 0)
(-0.001421020422347418 0 0)
(-0.001450182004262974 0 0)
(-0.001476122081133312 0 0)
(-0.001495706128720499 0 0)
(-0.001508015683943607 0 0)
(-0.001516248547984876 0 0)
(-0.001515330023722567 0 0)
(-0.001506336756351851 0 0)
(-0.001489350928956972 0 0)
(-0.001464198096436553 0 0)
(-0.001432489816048339 0 0)
(-0.001395483998150654 0 0)
(-0.001357384333905156 0 0)
(-0.001318435205166185 0 0)
(-0.001278994360926756 0 0)
(-0.001240213602687558 0 0)
(-0.001202173516598508 0 0)
(-0.001162530193368176 0 0)
(-0.001124994857476368 0 0)
(-0.001088899586674162 0 0)
(-0.001054361169200323 0 0)
(-0.001021841162440828 0 0)
(-0.0009920218191563376 0 0)
(-0.0009671879488491554 0 0)
(-0.0009433146586546591 0 0)
(-0.0009262378057903263 0 0)
(-0.000913800326982624 0 0)
(-0.0009060469462851625 0 0)
(-0.0009075117468258575 0 0)
(-0.0009148431361624248 0 0)
(-0.0009292385204513218 0 0)
(-0.0009514990900926406 0 0)
(-0.0009813465413165763 0 0)
(-0.00101840197146064 0 0)
(-0.001060823884208662 0 0)
(-0.001106216818972775 0 0)
(-0.001153438912408516 0 0)
(-0.00119967621304603 0 0)
(-0.001246044370347468 0 0)
(-0.001293784517050291 0 0)
(-0.001337721980772275 0 0)
(-0.00138329209744615 0 0)
(-0.001427668684866471 0 0)
(-0.001470846415967977 0 0)
(-0.001512070832324627 0 0)
(-0.001550430388532568 0 0)
(-0.001587717657276757 0 0)
(-0.001618156391758213 0 0)
(-0.001645629150600084 0 0)
(-0.001667840785936073 0 0)
(-0.001682864961958915 0 0)
(-0.0016923300431554 0 0)
(-0.001695148582664681 0 0)
(-0.001689188299959165 0 0)
(-0.001675362537289582 0 0)
(-0.001653336475012525 0 0)
(-0.001623887922944337 0 0)
(-0.001589324667189725 0 0)
(-0.001551103502246582 0 0)
(-0.001513565291230944 0 0)
(-0.001475054516617747 0 0)
(-0.001436124558263664 0 0)
(-0.001399346663921241 0 0)
(-0.00135987518545268 0 0)
(-0.001322948150721223 0 0)
(-0.001286629820029517 0 0)
(-0.001252319418221813 0 0)
(-0.001219759615391558 0 0)
(-0.001189274280703529 0 0)
(-0.001163609487045538 0 0)
(-0.001139523254915218 0 0)
(-0.00112023891332185 0 0)
(-0.001107540234412759 0 0)
(-0.001098458709701731 0 0)
(-0.001095913222594874 0 0)
(-0.001102185866179197 0 0)
(-0.001114309197804625 0 0)
(-0.001134056603352738 0 0)
(-0.001161538236724875 0 0)
(-0.001196222920649625 0 0)
(-0.001237340409682326 0 0)
(-0.001281533414153454 0 0)
(-0.001328555531620173 0 0)
(-0.001375451701696952 0 0)
(-0.001421152034607161 0 0)
(-0.001468399397483411 0 0)
(-0.001513960897092883 0 0)
(-0.001558698582053962 0 0)
(-0.001603102561075555 0 0)
(-0.001646792627198753 0 0)
(-0.001688657878522876 0 0)
(-0.001727879798101379 0 0)
(-0.00176532734203875 0 0)
(-0.001798701998843872 0 0)
(-0.001826693145718195 0 0)
(-0.001851741634570952 0 0)
(-0.00186924932531265 0 0)
(-0.001879880188633959 0 0)
(-0.001886374289542902 0 0)
(-0.00188352427378239 0 0)
(-0.001872535939445869 0 0)
(-0.0018536981889392 0 0)
(-0.001827069985671915 0 0)
(-0.001794361546651993 0 0)
(-0.001757725241509471 0 0)
(-0.001720310482079954 0 0)
(-0.001683108402351874 0 0)
(-0.001644480554340169 0 0)
(-0.001607232281617014 0 0)
(-0.001570697430779752 0 0)
(-0.001532304091683756 0 0)
(-0.001496601680537425 0 0)
(-0.00146236629207643 0 0)
(-0.001429798076015666 0 0)
(-0.001399339215438326 0 0)
(-0.001371714604519805 0 0)
(-0.001349068239716089 0 0)
(-0.001327819353929721 0 0)
(-0.00131302484042605 0 0)
(-0.001303535238636582 0 0)
(-0.001298522556900892 0 0)
(-0.001302305708434564 0 0)
(-0.001312709131849686 0 0)
(-0.001329771659817316 0 0)
(-0.001354883737804693 0 0)
(-0.001387322914282236 0 0)
(-0.001426384726991894 0 0)
(-0.001470005448628171 0 0)
(-0.00151597964924995 0 0)
(-0.001562879288764757 0 0)
(-0.001609413599998106 0 0)
(-0.001655204911176859 0 0)
(-0.001702918617645654 0 0)
(-0.001746016728540902 0 0)
(-0.001791301278705304 0 0)
(-0.00183495412693867 0 0)
(-0.001877495204513301 0 0)
(-0.001917780470720496 0 0)
(-0.00195508013058992 0 0)
(-0.001991083306791318 0 0)
(-0.00202049786730878 0 0)
(-0.002045860943998532 0 0)
(-0.002067849246630731 0 0)
(-0.002080501581949923 0 0)
(-0.002087782012397182 0 0)
(-0.002089053025536023 0 0)
(-0.002081137763696575 0 0)
(-0.002065443328785672 0 0)
(-0.002041883013628668 0 0)
(-0.002011385325345273 0 0)
(-0.001976577468747684 0 0)
(-0.001939449711713215 0 0)
(-0.001902504088451265 0 0)
(-0.001866053541545683 0 0)
(-0.001827663793711294 0 0)
(-0.001792563786242939 0 0)
(-0.001754871645087582 0 0)
(-0.001719231721964517 0 0)
(-0.001684821715906213 0 0)
(-0.001652509871197305 0 0)
(-0.001622012576870311 0 0)
(-0.001593584074675699 0 0)
(-0.001570231571474224 0 0)
(-0.001548315838373553 0 0)
(-0.001531657813315768 0 0)
(-0.001521746804193451 0 0)
(-0.00151541065678853 0 0)
(-0.001515117076507285 0 0)
(-0.001524560971036006 0 0)
(-0.001539497370478516 0 0)
(-0.001561898619342496 0 0)
(-0.001592043868353106 0 0)
(-0.0016290943848173 0 0)
(-0.001671378158197112 0 0)
(-0.001716792307481887 0 0)
(-0.001763135039404024 0 0)
(-0.00181043917378902 0 0)
(-0.001855913419837932 0 0)
(-0.001902652563058894 0 0)
(-0.001948806615587957 0 0)
(-0.001992052330310096 0 0)
(-0.002036238065871065 0 0)
(-0.002079306271412053 0 0)
(-0.002120372035296033 0 0)
(-0.002158664462936765 0 0)
(-0.002194760294758991 0 0)
(-0.002226964193069244 0 0)
(-0.002253950919049683 0 0)
(-0.002276637789933569 0 0)
(-0.002293891675083709 0 0)
(-0.002302010080085654 0 0)
(-0.002306498813742209 0 0)
(-0.002302112919956838 0 0)
(-0.002289091126041616 0 0)
(-0.002268706786064775 0 0)
(-0.002241007004701315 0 0)
(-0.002207683601055578 0 0)
(-0.002172083121008413 0 0)
(-0.00213506347985998 0 0)
(-0.002098923427355054 0 0)
(-0.002062702435359051 0 0)
(-0.00202550738246471 0 0)
(-0.001992059738514091 0 0)
(-0.001953611336135241 0 0)
(-0.00192041035432818 0 0)
(-0.001887920840274164 0 0)
(-0.001857536643384378 0 0)
(-0.001829231823847173 0 0)
(-0.001803619657448227 0 0)
(-0.001783171540048478 0 0)
(-0.001764950386997159 0 0)
(-0.001751730854170175 0 0)
(-0.001746636489963325 0 0)
(-0.00174359764960359 0 0)
(-0.001748931330832283 0 0)
(-0.001762962550301538 0 0)
(-0.001782896121789578 0 0)
(-0.001810565496473188 0 0)
(-0.001845542017037885 0 0)
(-0.001886206869195369 0 0)
(-0.001930885064561067 0 0)
(-0.001976790724540043 0 0)
(-0.002023407806370122 0 0)
(-0.002070845042760348 0 0)
(-0.002115332704206207 0 0)
(-0.002163224635024709 0 0)
(-0.002206654678568274 0 0)
(-0.002250772148934801 0 0)
(-0.002293902118822837 0 0)
(-0.002335824570097777 0 0)
(-0.002375233869180445 0 0)
(-0.00241141218239585 0 0)
(-0.00244576256411934 0 0)
(-0.002474226839387613 0 0)
(-0.002498271909010101 0 0)
(-0.002518255394144452 0 0)
(-0.002530128814986799 0 0)
(-0.002534148535939316 0 0)
(-0.002534425188106396 0 0)
(-0.002524983684499546 0 0)
(-0.002507255296593952 0 0)
(-0.00248255689691114 0 0)
(-0.002451606759748164 0 0)
(-0.002416680767456573 0 0)
(-0.00238134418652737 0 0)
(-0.002344613852384354 0 0)
(-0.002309306509107988 0 0)
(-0.002273424035791778 0 0)
(-0.002237516460537228 0 0)
(-0.002204809574218531 0 0)
(-0.00216774356908531 0 0)
(-0.002136281381085244 0 0)
(-0.002106013532858266 0 0)
(-0.002077631814816162 0 0)
(-0.002051734859978803 0 0)
(-0.002029362707519326 0 0)
(-0.002011177270489036 0 0)
(-0.001997126380520902 0 0)
(-0.001987923291046565 0 0)
(-0.001987337475515038 0 0)
(-0.001988232228252036 0 0)
(-0.001999669247430304 0 0)
(-0.002018231384046584 0 0)
(-0.002042965761325348 0 0)
(-0.002075693902899436 0 0)
(-0.002114832570948964 0 0)
(-0.00215793616819284 0 0)
(-0.002204248808705268 0 0)
(-0.002249877301127437 0 0)
(-0.002296503229694496 0 0)
(-0.002344024201481053 0 0)
(-0.002388159475026494 0 0)
(-0.002437092069449976 0 0)
(-0.002476509222664507 0 0)
(-0.002522262102460828 0 0)
(-0.002564025472831342 0 0)
(-0.002604361894806203 0 0)
(-0.00264218556491337 0 0)
(-0.002675908368333341 0 0)
(-0.002707629949968421 0 0)
(-0.002733484965028627 0 0)
(-0.002753799603027379 0 0)
(-0.002770748276998118 0 0)
(-0.002777073752214713 0 0)
(-0.002776954692303405 0 0)
(-0.002772387485925322 0 0)
(-0.00275823481121279 0 0)
(-0.002736102478226881 0 0)
(-0.002707800731320717 0 0)
(-0.002674689995859742 0 0)
(-0.002639500163399903 0 0)
(-0.002604713362386432 0 0)
(-0.002568486810242398 0 0)
(-0.002533635612234858 0 0)
(-0.002499204645891433 0 0)
(-0.002463424865595807 0 0)
(-0.002432346298693041 0 0)
(-0.002396053444391737 0 0)
(-0.002367962422129763 0 0)
(-0.002339336267832389 0 0)
(-0.002313743011785599 0 0)
(-0.002289754716761907 0 0)
(-0.002270989079116237 0 0)
(-0.002255577606783946 0 0)
(-0.00224578594801751 0 0)
(-0.002240672236936679 0 0)
(-0.002244408602406767 0 0)
(-0.00224986894038911 0 0)
(-0.00226749181699679 0 0)
(-0.002290622376421321 0 0)
(-0.00232004876782095 0 0)
(-0.00235742724099514 0 0)
(-0.002399464035232488 0 0)
(-0.002444394786559177 0 0)
(-0.002491248307061992 0 0)
(-0.002537028762894565 0 0)
(-0.002582954404594396 0 0)
(-0.002630486229235306 0 0)
(-0.002674621488701691 0 0)
(-0.002723425412413482 0 0)
(-0.002758785457405625 0 0)
(-0.002807952553701456 0 0)
(-0.002847442502584109 0 0)
(-0.002886644921153001 0 0)
(-0.002919766381381581 0 0)
(-0.00295358725110425 0 0)
(-0.002980392572691728 0 0)
(-0.00300450460587901 0 0)
(-0.003020839514388453 0 0)
(-0.003034294182971166 0 0)
(-0.003032854790635316 0 0)
(-0.00303104823213865 0 0)
(-0.003019546261550306 0 0)
)
;

boundaryField
{
    inlet
    {
        type            calculated;
        value           uniform (0.0005437541109261116 0 0);
    }
    outlet
    {
        type            calculated;
        value           uniform (-0.0030109333416354 0 0);
    }
    frontAndBack
    {
        type            empty;
    }
}


// ************************************************************************* //
