/*--------------------------------*- C++ -*----------------------------------*\
| =========                 |                                                 |
| \\      /  F ield         | OpenFOAM: The Open Source CFD Toolbox           |
|  \\    /   O peration     | Version:  v2012                                 |
|   \\  /    A nd           | Website:  www.openfoam.com                      |
|    \\/     M anipulation  |                                                 |
\*---------------------------------------------------------------------------*/
FoamFile
{
    version     2.0;
    format      ascii;
    class       volScalarField;
    location    "0.018";
    object      p;
}
// * * * * * * * * * * * * * * * * * * * * * * * * * * * * * * * * * * * * * //

dimensions      [1 -1 -2 0 0 0 0];


internalField   nonuniform List<scalar> 
1000
(
101310.1424363539
101308.6120874878
101298.8586262085
101290.3019197743
101281.5977761112
101273.5256865928
101266.6298146495
101261.4198734621
101257.5016806307
101254.4803170264
101252.9348661637
101252.9081329979
101254.0207683523
101256.2689491614
101259.7674779884
101264.4660991142
101270.1991683178
101276.7752625578
101284.0431552859
101291.8835725968
101300.1712341943
101308.7621661341
101317.5119014375
101326.290873987
101335.0026141935
101343.5951948201
101351.9597088737
101359.9640855698
101367.6054072233
101374.3718783769
101379.5760009664
101384.149655472
101387.7458939225
101390.3181402721
101391.639115878
101391.6872834491
101390.6395308318
101388.37719461
101384.7474184226
101379.7340146588
101373.4432404481
101366.0374342744
101357.6988570817
101348.6232553248
101339.0095075497
101329.0511958291
101318.9289379105
101308.7895498943
101298.775811439
101289.0834088645
101279.878911385
101271.3831495832
101264.2543303341
101258.9866626922
101254.9629067884
101251.8124104585
101249.8883382371
101249.2641732434
101249.8232672077
101251.3042995558
101253.9331755714
101257.8098285081
101262.9068435385
101269.0843406857
101276.1496462958
101283.9012423205
101292.1469464548
101300.7162117079
101309.4677216845
101318.2845672623
101327.0804760628
101335.8125599661
101344.3680362237
101352.5429980954
101360.3317939054
101367.3440861443
101372.7402579205
101377.4774369757
101381.3164986587
101384.1521234407
101385.9996783619
101386.6629506
101386.0945600178
101384.5136672199
101381.6643414687
101377.4298707908
101371.8209193445
101364.9468534868
101356.9711830384
101348.0927736534
101338.5340776077
101328.5232655822
101318.2741962686
101307.9587962523
101297.7253530567
101287.7781660149
101278.3218236687
101269.5609276676
101262.0831985316
101256.4598510453
101252.2637110745
101248.8664678361
101246.5627869283
101245.5206605321
101245.7066519342
101246.7487675674
101248.7910405535
101251.9744951348
101256.3591024156
101261.8958904168
101268.4569156125
101275.8732146839
101283.9569138341
101292.5108932314
101301.340587441
101310.2778771636
101319.2052732598
101328.0577368485
101336.7378293667
101345.0487712604
101352.9417337032
101360.1846403332
101365.9140999996
101370.7721359265
101374.8458066284
101377.993307437
101380.228408579
101381.3341669922
101381.2532866219
101380.1642345464
101377.9331626739
101374.3966054641
101369.4954205117
101363.2739531092
101355.8370427036
101347.3378575231
101337.9828923279
101328.0131671144
101317.6737833183
101307.1806990765
101296.7161508948
101286.5034812184
101276.7843100814
101267.7531587361
101259.8864477177
101253.8420433794
101249.4056235642
101245.7359016769
101243.1196751862
101241.7144779792
101241.4698249014
101242.1774627286
101243.771913689
101246.4118353308
101250.1865893028
101255.1052082648
101261.0953991814
101268.0391106592
101275.7881128091
101284.160344586
101292.9513546362
101301.9681936595
101311.0488202886
101320.065835786
101328.9166796693
101337.4249895329
101345.4322245481
101352.8410638784
101358.9890358356
101363.9088703268
101368.2184839806
101371.6384138955
101374.129618971
101375.6533596825
101376.0628323796
101375.3481316449
101373.6436736719
101370.7161123728
101366.4704231362
101360.8955645534
101354.0507536188
101346.0535310605
101337.0758076998
101327.3296284299
101317.0533690744
101306.490793575
101295.8609991056
101285.4036878404
101275.4016490061
101266.0819791744
101257.8206257295
101251.3060173719
101246.5917671337
101242.6975510377
101239.8145210126
101238.0056362517
101237.3469779962
101237.7844651847
101239.0122651243
101241.2024866744
101244.461029109
101248.8303392718
101254.2800911203
101260.730649591
101268.0677643805
101276.1410493393
101284.7692136863
101293.7577462433
101302.913603101
101312.0700774508
101321.1108795317
101329.8512070781
101338.0289258021
101345.6248896915
101352.2366109823
101357.2250353056
101361.7175546074
101365.3331591566
101368.0643463735
101369.9429517368
101370.7378613702
101370.3826629829
101369.097058155
101366.6914182323
101363.0206593549
101358.0290864063
101351.7483768751
101344.2655619018
101335.7110440228
101326.259612329
101316.131402822
101305.5756726902
101294.8310219158
101284.1465512264
101273.8365882828
101264.1726414899
101255.4671932695
101248.4087483106
101243.3112864136
101239.2111324615
101236.027123116
101233.8544483923
101232.833294692
101232.9312592607
101233.836435265
101235.627161925
101238.4185619161
101242.2858390932
101247.2305845608
101253.1972778362
101260.0964042093
101267.8096978293
101276.1851592559
101285.0394043749
101294.1766487042
101303.4184270496
101312.6181396171
101321.5786506491
101330.0103946143
101337.8407153927
101344.8181092809
101350.1268575419
101354.6955147799
101358.5116623409
101361.4905755677
101363.6269155999
101364.7388349945
101364.7851122777
101363.8746610395
101361.9292000611
101358.7900579036
101354.3764719192
101348.6890321615
101341.7776301679
101333.7295969744
101324.68672127
101314.848143572
101304.4514930218
101293.7375938883
101282.9521289264
101272.4176590282
101262.4596325374
101253.3539107228
101245.7239721188
101240.1229123912
101235.8610287498
101232.3823064184
101229.9425733671
101228.5857079332
101228.2917519785
101228.9189563043
101230.3464001512
101232.7239797927
101236.1361192903
101240.6110145868
101246.1156285934
101252.5824577481
101259.920143701
101268.0021513479
101276.6633517451
101285.7189818077
101294.9833996064
101304.2820585588
101313.4313867217
101322.1550783198
101330.231596521
101337.5195782505
101343.3605689207
101347.9310659967
101351.9178149227
101355.0709929944
101357.3668009867
101358.781724258
101359.1733745539
101358.529722916
101356.9784636507
101354.3015553506
101350.4045019007
101345.2591623123
101338.8838941107
101331.340770567
101322.7472474126
101313.271211623
101303.1213080178
101292.5313864389
101281.7440331459
101271.0628395817
101260.8427089867
101251.3857449201
101243.2017643536
101236.9816874969
101232.5276485827
101228.8028960793
101226.095787396
101224.3778422207
101223.7273765452
101224.0957273394
101225.2004305433
101227.1943318053
101230.1826323053
101234.2140062598
101239.2761176819
101245.3218533639
101252.2802122165
101260.0456291257
101268.4738227111
101277.3945120089
101286.6218901069
101295.9727189818
101305.2757439565
101314.2640580057
101322.6159518044
101330.2370033005
101336.6657770864
101341.3417722179
101345.4676863857
101348.7729471068
101351.235044726
101352.88428553
101353.534614714
101353.1481022187
101351.9207552779
101349.6599437602
101346.2338452497
101341.5856658598
101335.7213794529
101328.6884029316
101320.5739860215
101311.508505043
101301.6710550945
101291.2834048944
101280.5805035989
101269.8374933961
101259.4185320405
101249.6655333448
101240.9731545849
101234.0940873931
101229.2893940858
101225.39311005
101222.3934158897
101220.3517082389
101219.3854444162
101219.4437960983
101220.2563261009
101221.9002414026
101224.4918242614
101228.1028335597
101232.7409076524
101238.3741484193
101244.9472490031
101252.3750430066
101260.5360177654
101269.2768816386
101278.4209034474
101287.7855221267
101297.1956767377
101306.4032731802
101315.0704558602
101323.0280010472
101329.9340119035
101335.0529944208
101339.2275019435
101342.699887428
101345.348455723
101347.1894357441
101348.0527310754
101347.9147661072
101346.9554182494
101345.0443815943
101342.0346146516
101337.8517533243
101332.4872724618
101325.9644411518
101318.336206446
101309.7041375683
101300.2257145126
101290.1044922663
101279.5621974678
101268.8465167069
101258.303691411
101248.3039410804
101239.1886935558
101231.6522781209
101226.284444634
101222.2608937968
101218.9917404912
101216.7053378248
101215.4296727953
101215.1383350384
101215.6914128517
101216.9924411824
101219.2022007597
101222.4042093101
101226.6258046922
101231.8483983485
101238.0293476232
101245.1033408771
101252.9718371628
101261.4998396068
101270.5232691036
101279.8611905659
101289.3322541371
101298.7178300499
101307.6915772021
101315.9719337031
101323.3151495952
101329.0941609864
101333.2871785351
101336.9327876718
101339.7378488959
101341.7191295969
101342.7526289404
101342.8385972013
101342.1022017474
101340.49158433
101337.8551619935
101334.1096677725
101329.2243369889
101323.2013722394
101316.0761182315
101307.9310794085
101298.8940255288
101289.134157939
101278.8544484579
101268.2808206455
101257.7164518257
101247.5464350034
101238.1260300254
101229.9940516932
101223.9086334712
101219.7222953092
101216.2289076741
101213.6932189621
101212.0930503858
101211.4856779456
101211.7961663446
101212.7936347793
101214.6442717175
101217.4575012314
101221.2748102605
101226.0883189613
101231.8713536218
101238.5785815651
101246.1292667628
101254.4045941381
101263.258890762
101272.5237224301
101282.0175291375
101291.5582839008
101300.8923978658
101309.6934712956
101317.7486216046
101324.6600896077
101329.8009019245
101333.7951738782
101337.1249347949
101339.6159528247
101341.3111200492
101342.0679815507
101341.8755070994
101340.9528913779
101339.1925059264
101336.4820389694
101332.7544119491
101327.9955098619
101322.2277684788
101315.507065888
101307.9236002076
101299.5989687935
101290.6900119092
101281.3865684277
101271.8912919656
101262.4482103129
101253.367791322
101244.923157913
101237.4404684572
101231.4974549223
101227.2055731648
101223.6205433302
101220.8005337288
101218.8215579089
101217.6740697259
101217.387942982
101217.8896296865
101219.0244487057
101220.8913134504
101223.5485317291
101227.037517803
101231.3626993197
101236.4948949576
101242.3807067699
101248.9486199987
101256.1094420374
101263.7504343634
101271.7371533451
101279.928685014
101288.1468345292
101296.1394130289
101303.6878999763
101310.5375106553
101316.1405691245
101320.3410939671
101323.9187439481
101326.7167475592
101328.6787663482
101329.7148030267
101329.8178150778
101329.1019012824
101327.6171657955
101325.2778809221
101322.0146301795
101317.7895045396
101312.6131082467
101306.5339003742
101299.6315180964
101292.0141629885
101283.8192541739
101275.2077384159
101266.3585656069
101257.5115575356
101248.9605050156
101240.9642226763
101233.9190435417
101228.3958880484
101224.3623834705
101220.9730092045
101218.4082461741
101216.663228827
101215.8361692181
101215.9139442711
101216.6674220666
101218.1266631295
101220.3635904363
101223.4419815997
101227.3853029582
101232.1754220141
101237.7685761532
101244.1038128277
101251.0986898473
101258.6442237202
101266.6075209465
101274.8464675463
101283.1953357121
101291.4074285306
101299.2287785811
101306.4408597561
101312.5291865202
101317.0814518841
101320.796017486
101323.8114197485
101325.9651921811
101327.2821993362
101327.6851654048
101327.1867346936
101326.0050773886
101324.0195875982
101321.1545989527
101317.3557442573
101312.6189573266
101306.983262375
101300.5110987532
101293.2841507999
101285.4158208472
101277.0547604777
101268.3660867996
101259.5530325978
101250.8993423045
101242.6801506328
101235.2029944596
101229.0752788588
101224.6123094085
101221.027917232
101218.1634536348
101216.1599739301
101215.0438623804
101214.8110166975
101215.3550735804
101216.5575060581
101218.5149930539
101221.2864757739
101224.9072371573
101229.3748009125
101234.6592563066
101240.7074193757
101247.4407488904
101254.759331836
101262.5436191172
101270.659121414
101278.9571740716
101287.2231098091
101295.1957718039
101302.661554637
101309.2191739768
101314.3408589888
101318.2191386733
101321.4999330374
101323.9260104838
101325.5534750532
101326.2651011027
101326.0449915379
101325.1444897701
101323.4877762886
101320.9905119979
101317.5870916058
101313.2581192055
101308.0218924143
101301.922808084
101295.0326711437
101287.4546191731
101279.3225035018
101270.7892678981
101262.0330253969
101253.3119754979
101244.918212977
101237.1237623022
101230.4500592088
101225.3929024316
101221.6221347593
101218.4639784057
101216.2021443253
101214.7636815316
101214.2226543473
101214.5575378185
101215.5174191454
101217.1997009232
101219.6697345597
101222.9744702734
101227.12600968
101232.1016628735
101237.8514685034
101244.30686506
101251.3834116951
101258.9733519925
101266.9450130183
101275.1581480169
101283.4327108115
101291.5159413438
101299.1791349899
101306.1322282851
101311.8048292586
101316.005013564
101319.517587035
101322.2693831952
101324.1906770068
101325.2005958627
101325.3099716856
101324.657076645
101323.2882759396
101321.122352846
101318.0878733901
101314.1368434976
101309.2670001552
101303.51624912
101296.9507526343
101289.657626702
101281.7520179994
101273.3801001107
101264.7073596315
101255.9572389357
101247.4217524018
101239.3706703362
101232.2057928681
101226.5500717333
101222.4446074002
101219.0497321409
101216.4773109507
101214.7352502632
101213.9128493485
101213.9888130521
101214.7251016123
101216.1501934094
101218.3295401652
101221.3229545186
101225.1550143077
101229.8125397049
101235.2577738505
101241.4350388989
101248.2665209884
101255.6492047663
101263.4588489306
101271.5633164145
101279.8075052701
101287.9591437296
101295.7751596297
101303.0282092141
101309.2081939465
101313.8900347769
101317.6046554332
101320.6528755941
101322.8321935661
101324.1832372359
101324.6345475062
101324.2036623587
101323.1229792418
101321.2771655921
101318.5894700572
101315.0021166964
101310.5027069243
101305.117616661
101298.8949387426
101291.9042419153
101284.248820294
101276.0669077201
101267.5127199068
101258.7788967375
101250.1462271113
101241.8940200922
101234.3347032235
101228.0889561534
101223.509507981
101219.8908764132
101216.9979413401
101214.9882897563
101213.8733928561
101213.6378921144
101214.17045495
101215.3489401491
101217.258483426
101219.9505786684
101223.4620386852
101227.7984818093
101232.9378864403
101238.8316490804
101245.4050180768
101252.5644466431
101260.1983097107
101268.1779117662
101276.3608265893
101284.544895718
101292.4801752186
101299.9514351048
101306.5726482052
101311.8109118086
101315.7539203642
101319.0747452734
101321.5550089656
101323.2296787143
101323.991603253
101323.8336387976
101323.0042953351
101321.4469012243
101319.0887340611
101315.8666876833
101311.7494249379
101306.7366670723
101300.8590278053
101294.1813173281
101286.798566764
101278.8327954519
101270.4280476937
101261.7557587038
101253.0689383335
101244.659480733
101236.7996240664
101230.014293533
101224.8293091471
101220.9669235868
101217.7705963385
101215.4912877521
101214.051537483
101213.5062801362
101213.8377966005
101214.7843878812
101216.4307169861
101218.830678859
101222.032041416
101226.0551562062
101230.8851404366
101236.4790064361
101242.7763139465
101249.6999006205
101257.1462840391
101264.986214454
101273.0834280329
101281.2657984922
101289.2890459281
101296.9302547608
101303.9118221891
101309.6734367854
101313.9858995302
101317.5354019153
101320.3426061463
101322.3015587805
101323.3600365239
101323.5295327467
101322.9309339038
101321.6500074101
101319.6067520349
101316.7343009707
101312.9774730419
101308.3249507401
101302.805485739
101296.4709851671
101289.3912034641
101281.6682842336
101273.442431836
101264.8732913583
101256.1773853444
101247.6483743438
101239.5536996012
101232.294467876
101226.5126961486
101222.2729219991
101218.8125203031
101216.2052430537
101214.4515639075
101213.6251030345
101213.706497378
101214.4451807724
101215.8564635502
101217.9861222405
101220.8874072722
101224.5911325676
101229.0969407734
101234.3806916732
101240.3969788154
101247.0734285183
101254.3111174871
101261.9906191739
101269.9823186512
101278.1323782382
101286.2126261627
101293.9866273155
101301.2352612354
101307.4753236074
101312.2887302398
101316.0570003774
101319.1750648988
101321.4043244748
101322.813083424
101323.32495718
101322.9409102225
101321.9154909158
101320.1491590962
101317.5772541887
101314.1455598336
101309.833735645
101304.6526790327
101298.6351432865
101291.8402548623
101284.3623189633
101276.3287789599
101267.884951742
101259.2175082079
101250.6067076747
101242.3288991488
101234.6896080755
101228.3213616095
101223.5834613086
101219.8551869999
101216.8954221663
101214.8683627773
101213.7515892031
101213.5178833531
101214.0701601235
101215.2627167686
101217.1523547631
101219.7728618836
101223.165726802
101227.3519475401
101232.3223468545
101238.0377151062
101244.4352432531
101251.435991467
101258.9373770627
101266.8087035245
101274.9029708478
101283.01823037
101290.9065629996
101298.3589366049
101305.0104622907
101310.3476870055
101314.381219176
101317.764488567
101320.3133617455
101322.0468041313
101322.8670873328
101322.7649797234
101321.9729990107
101320.4670500732
101318.1951680494
101315.1016390775
101311.149458848
101306.3309415105
101300.6702247577
101294.2186806398
101287.0476713309
101279.2572218298
101270.9839687926
101262.3967335877
101253.7462804679
101245.3274853063
101237.4040858591
101230.5059649305
101225.1745236009
101221.1506941626
101217.8531247842
101215.5282881605
101214.0592309318
101213.5027219945
101213.8702231212
101214.8618919346
101216.5360655776
101218.9135266324
101222.0303546704
101225.9116677562
101230.5566955084
101235.9439043819
101242.0376330419
101248.7791325671
101256.0734491866
101263.7940058987
101271.8050323004
101279.9299719682
101287.9154395579
101295.5409722166
101302.53801668
101308.3667685817
101312.8058798237
101316.4027212202
101319.2624756434
101321.2520474322
101322.3826129057
101322.6475211513
101322.1115205833
101320.8983798626
101318.9120290625
101316.0986695164
101312.4217639503
101307.8883619114
101302.5373188164
101296.4125679316
101289.5598636447
101282.0499565891
101273.9924920992
101265.5240356916
101256.8600099768
101248.3164131794
101240.1577192613
101232.7919114568
101226.8752843366
101222.4675636776
101218.8911482463
101216.2098809563
101214.4116053288
101213.5436758975
101213.5964075662
101214.3659991895
101215.8419286007
101218.0295602583
101220.9375973881
101224.5702905916
101228.9216496623
101233.9783697927
101239.7218187542
101246.1349839342
101253.1370333035
101260.7998273437
101268.3185276151
101279.0612561175
)
;

boundaryField
{
    inlet
    {
        type            uniformFixedValue;
        uniformValue    sine;
        uniformValueCoeffs
        {
            frequency       constant 3000;
            scale           constant 50;
            level           constant 101325;
        }
        value           uniform 101323.6440830864;
    }
    outlet
    {
        type            waveTransmissive;
        gamma           1.4;
        fieldInf        101325;
        lInf            2.25;
        value           uniform 101281.0037669189;
    }
    frontAndBack
    {
        type            empty;
    }
}


// ************************************************************************* //
