/*--------------------------------*- C++ -*----------------------------------*\
| =========                 |                                                 |
| \\      /  F ield         | OpenFOAM: The Open Source CFD Toolbox           |
|  \\    /   O peration     | Version:  v2012                                 |
|   \\  /    A nd           | Website:  www.openfoam.com                      |
|    \\/     M anipulation  |                                                 |
\*---------------------------------------------------------------------------*/
FoamFile
{
    version     2.0;
    format      ascii;
    class       volScalarField;
    location    "0.018";
    object      pMean;
}
// * * * * * * * * * * * * * * * * * * * * * * * * * * * * * * * * * * * * * //

dimensions      [1 -1 -2 0 0 0 0];


internalField   nonuniform List<scalar> 
1000
(
101325.0121728817
101325.0030404012
101324.9944140001
101325.0144785959
101325.0194045573
101325.0308648407
101325.0401422573
101325.0525616445
101325.0646473699
101325.0772686385
101325.0892075937
101325.1001624128
101325.1092747839
101325.1178910924
101325.1216476756
101325.1245273938
101325.1242187055
101325.1210379257
101325.1144891661
101325.1046690193
101325.0913702195
101325.0749770961
101325.0554305042
101325.0342248689
101325.0097194508
101324.9842705394
101324.9563319821
101324.9262639681
101324.8940964118
101324.8615110753
101324.8287041295
101324.7962865655
101324.7644148541
101324.7329742661
101324.7030160461
101324.6735176015
101324.6473663059
101324.6198909325
101324.5958254734
101324.5740003973
101324.5546223521
101324.5378954834
101324.523835269
101324.5124860768
101324.5039571377
101324.4981249465
101324.4958453689
101324.496359336
101324.4994174753
101324.5057289046
101324.5128610719
101324.5210771282
101324.5312325097
101324.542381035
101324.5540155233
101324.5657230088
101324.5769244147
101324.5876720733
101324.596524982
101324.6053958736
101324.6098846146
101324.6129178603
101324.6137222661
101324.6115132198
101324.6062171215
101324.5975412372
101324.5854149167
101324.5699496314
101324.5512664801
101324.5300360262
101324.5069691397
101324.4808028829
101324.4545528393
101324.4246908412
101324.3925573763
101324.3596849696
101324.3265586105
101324.293852613
101324.2615565227
101324.2300549212
101324.1994875638
101324.1699793983
101324.1427157737
101324.1156743691
101324.0901948178
101324.0674835458
101324.0467798418
101324.0287663984
101324.0132876969
101324.0004948531
101323.9904243843
101323.9832277841
101323.9788081195
101323.978471456
101323.9794613885
101323.9857932919
101323.9921126897
101323.9995562215
101324.0086179279
101324.0189456455
101324.0298314014
101324.0408081051
101324.0516409435
101324.0616605025
101324.0708041491
101324.078691495
101324.0847257764
101324.0873748623
101324.088665962
101324.0871367264
101324.0828186103
101324.0752689053
101324.064244584
101324.0498180641
101324.0321437203
101324.0111395778
101323.9886992694
101323.9624420331
101323.937181853
101323.9078128927
101323.8760523007
101323.8427507702
101323.8092180015
101323.7759851135
101323.7432171248
101323.7112429105
101323.6799485707
101323.6502178657
101323.6215096248
101323.5951048391
101323.5682429376
101323.5442803722
101323.522351115
101323.5029348984
101323.4859728506
101323.4715426252
101323.4598007237
101323.4508743029
101323.4444653864
101323.4420452937
101323.4416980337
101323.4462005202
101323.4523011799
101323.4588283985
101323.4665260529
101323.475787083
101323.485626146
101323.4958013324
101323.5057755597
101323.5151150756
101323.5239099951
101323.5309340398
101323.5377381756
101323.5402554274
101323.5412165605
101323.5400629793
101323.5362090594
101323.5294104116
101323.5192372281
101323.5057022535
101323.4887790744
101323.4684381776
101323.4456986892
101323.4205486234
101323.3939559972
101323.3665284118
101323.3346565783
101323.3009847839
101323.2667753721
101323.2327676179
101323.1993025671
101323.1664257301
101323.1343623484
101323.1036699287
101323.0738366942
101323.0469786728
101323.0194941703
101322.993705971
101322.9704155475
101322.9493796908
101322.9307896385
101322.9146299222
101322.9010169628
101322.8900977778
101322.8818228886
101322.8766584274
101322.875028742
101322.8764334258
101322.8828167426
101322.888116934
101322.894577486
101322.9025137605
101322.9112805141
101322.9204880591
101322.9295489361
101322.9382440877
101322.9462524072
101322.9529032028
101322.959266845
101322.962640095
101322.9629938895
101322.9618344847
101322.9582194635
101322.9519685532
101322.9425456539
101322.9297740986
101322.9136087775
101322.894141237
101322.8713861195
101322.8467099433
101322.8193743205
101322.7934437555
101322.7619822062
101322.7282018913
101322.6932820497
101322.6584707413
101322.6241448146
101322.5904203614
101322.5574963458
101322.5255978475
101322.4949955334
101322.4663583598
101322.4391248116
101322.4117484193
101322.3867946381
101322.3641632674
101322.343887806
101322.3259975734
101322.3104169939
101322.2974400325
101322.2871921808
101322.2794068932
101322.275433855
101322.2739335096
101322.2792882701
101322.2836393264
101322.2887856899
101322.2950766225
101322.3024825472
101322.3103710166
101322.3183534325
101322.3260203296
101322.3328739776
101322.3389951736
101322.3438458374
101322.3479642232
101322.3477582564
101322.3459688292
101322.3422367933
101322.3360189816
101322.3268847661
101322.3144779911
101322.2987472389
101322.2797651869
101322.257137705
101322.2323340949
101322.2043644386
101322.1783155257
101322.1479040159
101322.1140406959
101322.0783278751
101322.042421284
101322.0068999318
101321.9720503315
101321.937894616
101321.9045643766
101321.8727119138
101321.8420963516
101321.8142186903
101321.785558408
101321.7586636361
101321.7343127746
101321.712118196
101321.6923165524
101321.6747176928
101321.6596184375
101321.6471125096
101321.6369832033
101321.630277785
101321.6260557469
101321.628202674
101321.6327377355
101321.6363177126
101321.6411425225
101321.6470904298
101321.6536187843
101321.6604721548
101321.6670822372
101321.6729008508
101321.6782492385
101321.6819278423
101321.6858322299
101321.6858409634
101321.6832915978
101321.6792964762
101321.6729425835
101321.6639484446
101321.651887146
101321.636566617
101321.6179586058
101321.5958876148
101321.5708371307
101321.5430674676
101321.5147048028
101321.4873527997
101321.4529364751
101321.4170970381
101321.3801836802
101321.3435136242
101321.3074764577
101321.2721273037
101321.2374679031
101321.2042106518
101321.171880213
101321.1425246864
101321.1134798971
101321.0845546332
101321.0581793045
101321.0340328416
101321.0122308113
101320.9926726258
101320.9754075244
101320.9605765841
101320.9483743247
101320.938693342
101320.9323476885
101320.9292686729
101320.9351310656
101320.9364048507
101320.9400195797
101320.9443523693
101320.9494822983
101320.9549791784
101320.9604814827
101320.9653680788
101320.9696253657
101320.972463199
101320.9752476629
101320.9762346999
101320.9729287835
101320.9679727555
101320.9613187287
101320.952183119
101320.9403028933
101320.9251743847
101320.9067887266
101320.8852355453
101320.8600928721
101320.8324304333
101320.8016072739
101320.7765468574
101320.7421939076
101320.706285825
101320.6685724336
101320.6306800021
101320.5933623049
101320.5567309996
101320.5208275191
101320.4858645904
101320.4521625949
101320.4203537629
101320.3914328118
101320.3608731355
101320.3318700821
101320.3058311358
101320.2819608308
101320.2603702199
101320.2410090594
101320.2238944633
101320.2094896679
101320.1972341376
101320.1883438036
101320.1809126623
101320.1854062235
101320.1859114418
101320.1878644287
101320.1906871938
101320.1943551753
101320.1983870128
101320.2027465734
101320.2066338767
101320.2097062412
101320.2119087029
101320.2129257088
101320.2143691002
101320.2110317355
101320.2049695856
101320.1979873832
101320.1885620575
101320.1766170738
101320.1616513633
101320.1434057944
101320.1220833079
101320.0971115216
101320.0694526095
101320.0375014806
101320.0110397768
101319.9790478533
101319.9426962048
101319.9046006668
101319.8656528703
101319.8269907387
101319.7890367448
101319.7518417522
101319.7152504732
101319.6801005409
101319.6460089497
101319.6153814014
101319.5841158802
101319.5530766193
101319.525110895
101319.4991748552
101319.4755344756
101319.4541638388
101319.4348930907
101319.41818394
101319.4036904739
101319.3922141829
101319.3822801946
101319.3806902411
101319.3831721632
101319.3827636878
101319.3843315496
101319.3865911558
101319.3892191188
101319.3922188298
101319.3951236319
101319.3971305813
101319.3985686611
101319.3983181825
101319.3986363446
101319.3959608092
101319.3893725391
101319.381729818
101319.3719503461
101319.3597709512
101319.3448416439
101319.3267463001
101319.3054393328
101319.2808478938
101319.2529727644
101319.2218186528
101319.189845922
101319.1630696832
101319.1255154234
101319.0875206266
101319.0478228442
101319.0079668513
101318.9685965107
101318.9301229666
101318.8921083745
101318.8554076424
101318.8195045602
101318.7865043039
101318.7548700361
101318.7222752653
101318.691791837
101318.6638661204
101318.6381321851
101318.6147488253
101318.5935639446
101318.5745873279
101318.558173566
101318.5440301462
101318.5329838205
101318.5234656493
101318.5292421737
101318.5260674921
101318.5265755319
101318.5276663596
101318.5292128344
101318.5309998204
101318.5330145918
101318.5343417876
101318.5350733954
101318.5343333039
101318.533230953
101318.5318761237
101318.5254940564
101318.5166243128
101318.506744849
101318.4944923221
101318.479699865
101318.4620428139
101318.4409432818
101318.4168757602
101318.3890672279
101318.3588525316
101318.3230644757
101318.2992251085
101318.2619248037
101318.2236521789
101318.1833802979
101318.1421658444
101318.1010024246
101318.0605624183
101318.0205909243
101317.9814443384
101317.9432064346
101317.9063103688
101317.8734232974
101317.8383242415
101317.8030464944
101317.7714019901
101317.7414116295
101317.713468869
101317.6875036865
101317.6631466915
101317.6409519609
101317.6203111406
101317.6026610057
101317.5842823788
101317.5814102377
101317.573036049
101317.5654676218
101317.5594609149
101317.5543865163
101317.5498764378
101317.5458479841
101317.541938033
101317.5375468742
101317.5327599949
101317.5269729357
101317.522612223
101317.51464345
101317.5029181029
101317.4917161234
101317.4788201587
101317.4643011122
101317.4479524968
101317.4291636702
101317.4080528855
101317.3841514573
101317.3584701596
101317.3283797492
101317.3049857906
101317.2786205496
101317.2458280889
101317.2120532736
101317.1766139774
101317.1401916628
101317.1037920539
101317.0678635778
101317.0320258084
101316.9970174261
101316.962392548
101316.9304618549
101316.8987550986
101316.8652308565
101316.8344300236
101316.8050665016
101316.7772718367
101316.7510673297
101316.7262834582
101316.7027841785
101316.6807280514
101316.6605219564
101316.6416476684
101316.6280261557
101316.6235984585
101316.612092321
101316.6039210056
101316.5967239779
101316.5903784923
101316.5845990688
101316.5793035796
101316.5737748645
101316.5681453584
101316.5616828245
101316.5553946072
101316.5486459928
101316.5373095192
101316.5249946738
101316.5120620454
101316.4974205061
101316.4811123704
101316.4627552158
101316.4417932015
101316.4183865701
101316.3922512126
101316.364636381
101316.3327032824
101316.3139685588
101316.2793731321
101316.2459932523
101316.2104564019
101316.1736486949
101316.1362958953
101316.0993512953
101316.0626316935
101316.026666012
101315.9911622434
101315.9570715748
101315.925589674
101315.8921273782
101315.8588061467
101315.8285538737
101315.7994626347
101315.7721294321
101315.746412483
101315.7218323281
101315.6987690234
101315.6768188856
101315.6579798429
101315.6370064557
101315.6359953295
101315.6227410813
101315.6133977584
101315.6052816332
101315.5982520161
101315.591673729
101315.5855768596
101315.5795373376
101315.5734451587
101315.5668463397
101315.5593661624
101315.5536340513
101315.5435165808
101315.5294741122
101315.5167519805
101315.501943248
101315.4857049818
101315.4676257148
101315.4471214824
101315.4241048521
101315.3980578103
101315.3710119631
101315.33759557
101315.3180903737
101315.286551078
101315.2526561781
101315.2174911725
101315.1809447949
101315.1433328886
101315.1057712746
101315.0684950615
101315.0318378971
101314.9958880005
101314.9604201674
101314.9284533564
101314.8955698913
101314.8605085308
101314.8295559185
101314.7995531723
101314.7712823731
101314.7447232784
101314.7196104252
101314.6956708504
101314.6727395675
101314.6525400397
101314.6316447102
101314.6228991525
101314.6145031952
101314.6028694754
101314.5941339531
101314.5865823481
101314.5795494826
101314.5728210528
101314.5662163948
101314.5597612098
101314.5530010919
101314.5453866992
101314.5383114456
101314.5298046229
101314.5162083128
101314.5031105859
101314.488650737
101314.4724857767
101314.454693031
101314.4349077297
101314.4124137444
101314.387032842
101314.3596793112
101314.3295166132
101314.3004300822
101314.2778496315
101314.2424751542
101314.2081597996
101314.1720148645
101314.1347506406
101314.0968472128
101314.0590963404
101314.0219744699
101313.9855784941
101313.9500364095
101313.9158058823
101313.8838874495
101313.8494549753
101313.8164273364
101313.7861252727
101313.7569277961
101313.7295932733
101313.703932178
101313.6795086407
101313.6560564771
101313.6339052264
101313.6151179643
101313.5944957844
101313.5950705986
101313.5796337596
101313.5706389975
101313.5623148965
101313.5551346941
101313.547934946
101313.5407819419
101313.5337700815
101313.52681719
101313.5195237842
101313.5111430632
101313.5041029387
101313.4922986146
101313.4773128338
101313.4634814285
101313.4474233491
101313.4298644256
101313.4105426862
101313.3889159567
101313.3643579438
101313.3366637566
101313.3088280978
101313.272865262
101313.2573775438
101313.2212723249
101313.187297389
101313.1515176121
101313.1148411115
101313.0770557748
101313.0390331155
101313.0012211579
101312.964505866
101312.9286722888
101312.8931966494
101312.8617705461
101312.8285689291
101312.7928717535
101312.7623522404
101312.7324246563
101312.7042783447
101312.6779172864
101312.6532055172
101312.6293268741
101312.6060921588
101312.5864419331
101312.5639647906
101312.5608097577
101312.5487236279
101312.5373407025
101312.5284436823
101312.5209123628
101312.5136895251
101312.5062173586
101312.4984879467
101312.4912720612
101312.4838754244
101312.4752487907
101312.4682063625
101312.4581492173
101312.442478063
101312.4290007986
101312.413333255
101312.396015838
101312.3770371767
101312.3561983499
101312.3326355404
101312.3055499904
101312.2774520398
101312.2448109742
101312.2197398
101312.1932703809
101312.1573981153
101312.1223855469
101312.0861332237
101312.0490139805
101312.01107881
101311.9727456382
101311.9355653416
101311.8991614124
101311.8638371915
101311.8304282559
101311.798074708
101311.7628596424
101311.7307849753
101311.7006158489
101311.6717412634
101311.6445923489
101311.6193430384
101311.5954261419
101311.5718117035
101311.5500211074
101311.5307166635
101311.5131077057
101311.5130761835
101311.4970358056
101311.4880067795
101311.4797086193
101311.4726319738
101311.4652505201
101311.4570543088
101311.4492127334
101311.4414539072
101311.4337737525
101311.4248685527
101311.4166396904
101311.4032208171
101311.387790874
101311.3730453467
101311.3560471096
101311.3373437572
101311.3169591018
101311.294539523
101311.268664057
101311.239623874
101311.2113228826
101311.1732054464
101311.1618963289
101311.1214140966
101311.0876119184
101311.0514082248
101311.0149848187
101310.9777277605
101310.9393950954
101310.901372019
101310.8645216262
101310.8293034261
101310.7939999787
101310.7630943941
101310.7296364063
101310.6940745091
101310.6641271335
101310.6346335907
101310.606827893
101310.5807357419
101310.5566531725
101310.5331590639
101310.5098805595
101310.4911514578
101310.4669848894
101310.4704486207
101310.454305023
101310.4435461798
101310.4344655116
101310.4271000555
101310.4201492627
101310.4121925884
101310.4035722093
101310.3953096438
101310.3877148347
101310.378006578
101310.3715321229
101310.360433424
101310.3425361127
101310.3289782971
101310.3124010675
101310.2942991018
101310.2741522008
101310.2525280325
101310.2280366464
101310.1997317361
101310.1710536528
101310.1363750918
101310.1152625284
101310.0857662222
101310.0491466522
101310.0137021723
101309.9775007075
101309.9410210528
101309.9036593792
101309.8651680819
101309.827695103
101309.7917455192
101309.7565863291
101309.7246583909
101309.6923042899
101309.6562223141
101309.625288839
101309.5955157146
101309.5672822441
101309.5403997318
101309.5155947667
101309.4921516296
101309.4688092768
101309.4476491182
101309.4276928082
101309.4137976712
101309.4131663222
101309.3967731694
101309.3873799171
101309.3790990136
101309.3721059036
101309.3650405729
101309.3562407025
101309.3473016679
101309.338667552
101309.3304240172
101309.3213518446
101309.3121546725
101309.2972199002
101309.2814446015
101309.2659060513
101309.2482901792
101309.2287035445
101309.2072410976
101309.1837771207
101309.1569474692
101309.1270121877
101309.0979405433
101309.0582159156
101309.0515273961
101309.0069743622
101308.9730401506
101308.9364160929
101308.9002352388
101308.8638671662
101308.8261258903
101308.7880310913
101308.7506926769
101308.7161512458
101308.6811283107
101308.6509735242
101308.6175823726
101308.5822113134
101308.552903977
101308.5239849053
101308.4968512132
101308.4710953163
101308.4472224391
101308.4238499065
101308.4013474287
101308.38333798
101308.3579487656
101308.3677575001
101308.3478178108
101308.3375420573
101308.3280371219
101308.3205399754
101308.3136883868
101308.3059681868
101308.2970542421
101308.2871056574
101308.2789812437
101308.267796895
101308.2623321884
101308.2505095726
101308.2301385002
101308.216502137
101308.1991391446
101308.1804588828
101308.1595813467
101308.1369073552
101308.1104748227
101308.0820511998
101308.0526138478
101308.0164406446
101307.9982925519
101307.967172697
101307.9293455236
101307.8934816821
101307.8572119007
101307.82109075
101307.7844791579
101307.7472812493
101307.7093353526
101307.6733563619
101307.637486836
101307.6074196278
101307.5758764948
101307.5387065423
101307.5088394406
101307.4794699017
101307.451766326
101307.4255159923
101307.4015272043
101307.3771278001
101307.3543716251
101307.334317062
101307.314414794
101307.3014102719
101307.3060979627
101307.2850310024
101307.2762839412
101307.2677356503
101307.2605989443
101307.2530774721
101307.2447936345
101307.2358072086
101307.2261949142
101307.215261352
101307.2059208645
101307.197303269
101307.1810419248
101307.1642597014
101307.1484597294
101307.129828313
101307.109014107
101307.0870138623
101307.0635393807
101307.0327531366
101306.9953690577
101306.9499534705
101306.913541957
)
;

boundaryField
{
    inlet
    {
        type            calculated;
        value           uniform 101325.0000000003;
    }
    outlet
    {
        type            calculated;
        value           uniform 101306.9323905201;
    }
    frontAndBack
    {
        type            empty;
    }
}


// ************************************************************************* //
