/*--------------------------------*- C++ -*----------------------------------*\
| =========                 |                                                 |
| \\      /  F ield         | OpenFOAM: The Open Source CFD Toolbox           |
|  \\    /   O peration     | Version:  v2012                                 |
|   \\  /    A nd           | Website:  www.openfoam.com                      |
|    \\/     M anipulation  |                                                 |
\*---------------------------------------------------------------------------*/
FoamFile
{
    version     2.0;
    format      ascii;
    class       volScalarField;
    location    "0.018";
    object      rho;
}
// * * * * * * * * * * * * * * * * * * * * * * * * * * * * * * * * * * * * * //

dimensions      [1 -3 0 0 0 0 0];


internalField   nonuniform List<scalar> 
1000
(
1.17625679837912
1.176274741563725
1.176211694133058
1.176142875560676
1.176068835963275
1.176000108701001
1.175941548515389
1.175896743818359
1.175862146577281
1.175834537056635
1.175819697108214
1.175817304414741
1.175824112095974
1.175841460199424
1.175869802310713
1.175908271743568
1.175955475177667
1.176009867582119
1.176070194578903
1.176135436452363
1.176204502890471
1.176276137382881
1.176349081422708
1.176422214436537
1.176494712303694
1.176566141578941
1.176635608485017
1.176702028385498
1.176765385623906
1.176821449306377
1.176864535336799
1.176902381690821
1.176932118288763
1.176953365853541
1.176964271023089
1.176964620808991
1.176955870137305
1.176937081661325
1.176906975428876
1.176865405255223
1.176813251401377
1.176751860695018
1.176682743115592
1.176607519162768
1.176527834301417
1.176445289415129
1.176361378252517
1.176277315791531
1.176194285502022
1.176113911088181
1.176037575515623
1.175967112122166
1.175907981942449
1.175864286032495
1.175830906982025
1.175804771826045
1.175788810059316
1.175783630896912
1.175788266281742
1.175800549642627
1.175822354467097
1.17585450781755
1.175896781719443
1.175948015723773
1.176006611317721
1.176070896631015
1.176139277388306
1.176210338972229
1.176282909412647
1.17635601934209
1.176428953562912
1.176501356654125
1.176572293670775
1.176640074193409
1.17670465165955
1.176762790088875
1.176807528759196
1.176846803424152
1.176878631761041
1.176902140788781
1.176917458066581
1.176922956994394
1.176918244854417
1.176905138555611
1.176881516131043
1.176846409755711
1.176799907464842
1.176742915478765
1.176676788879487
1.176603175923171
1.176523920526417
1.176440914168173
1.176355929834581
1.176270392992283
1.176185533253389
1.176103044876795
1.17602462470986
1.175951969889128
1.175889955042455
1.175843318197208
1.175808517281456
1.175780341743753
1.175761235649339
1.175752592483689
1.175754134978225
1.175762777912939
1.175779715840934
1.175806118200319
1.175842482098086
1.175888401031627
1.175942813499524
1.176004317814039
1.176071355518184
1.176142291579076
1.176215512278205
1.17628962334445
1.176363650472261
1.176437054365929
1.176509027149839
1.176577937355862
1.176643380348454
1.176703432230866
1.176750935052779
1.176791212295509
1.176824986044545
1.176851080881578
1.176869611173462
1.176878778508718
1.176878107906571
1.176869078956407
1.176850581954111
1.176821261465264
1.176780626817367
1.176729045212353
1.176667385320611
1.176596916482205
1.1765193502254
1.176436684466014
1.176350951146081
1.176263940762683
1.176177164391335
1.176092474183192
1.176011874080921
1.175936977643142
1.175871736485275
1.175821607297571
1.1757848133267
1.175754377689612
1.175732679242432
1.175721024737
1.175718995563303
1.175724864516345
1.175738088510121
1.175759983328602
1.175791289893323
1.175832082821565
1.175881762175798
1.175939348485581
1.176003612009892
1.176073042499798
1.176145944134589
1.176220716621422
1.176296016119884
1.17637078618553
1.176444176442705
1.176514724675591
1.176581116563917
1.176642545497355
1.176693519220062
1.176734309614294
1.176770040177171
1.17679839414059
1.176819048052478
1.176831680890358
1.176835075646087
1.176829150206795
1.176815018950264
1.176790747164421
1.176755546742333
1.176709325746866
1.176652574646358
1.176586267409988
1.176511828802369
1.176431016433118
1.176345806385845
1.17625821962165
1.176170072784517
1.176083353622305
1.17600040744829
1.175923117963246
1.175854603544427
1.175800574376983
1.175761475893321
1.175729178095514
1.175705266616655
1.175690263839593
1.175684800918493
1.175688429328344
1.17569861250535
1.175716777866229
1.175743803548296
1.175780041344486
1.175825239414969
1.175878736910249
1.17593958587707
1.176006538697975
1.176078091531059
1.176152631016466
1.176228556110808
1.176304484326473
1.176379451381895
1.176451925017738
1.176519731916561
1.176582713658042
1.176637533470369
1.176678893328141
1.176716141037522
1.176746117842975
1.176768761771361
1.176784336927407
1.176790927328656
1.176787982380545
1.176777323562845
1.176757378651814
1.176726944564173
1.176685559193837
1.176633484731242
1.17657144222712
1.176500512299091
1.176422143619337
1.176338160962085
1.176250630746781
1.176161531244681
1.176072928054804
1.175987427968704
1.175907282965093
1.175835085080881
1.175776545157664
1.175734268079683
1.175700261956076
1.175673853924919
1.175655833696867
1.175647364166641
1.175648176615242
1.175655684072777
1.175670536291588
1.175693687960238
1.175725762599679
1.175766773123705
1.175816258706199
1.175873476542165
1.17593744537331
1.17600690421481
1.176080331890902
1.176156104521587
1.17623274200362
1.1763090286246
1.176383329770163
1.176453244589357
1.176518170959433
1.176576023921405
1.176620040553271
1.1766579202819
1.176689560393485
1.176714258650539
1.176731970968843
1.176741189812541
1.176741573431383
1.176734024821045
1.176717894961547
1.176691868143329
1.176655274475536
1.176608118461319
1.17655081327522
1.176484082447177
1.176409101026455
1.176327519664203
1.176241308294896
1.17615246354725
1.176063022579558
1.175975660370296
1.17589307616388
1.175817558251084
1.175754278174667
1.175707824018331
1.175672476207559
1.175643623555544
1.175623388136317
1.175612134064446
1.175609695886523
1.175614897920931
1.175626737228894
1.175646456996883
1.175674757255784
1.17571187161494
1.175757525752824
1.175811159433545
1.175872014549073
1.175939041260796
1.176010869716019
1.176085967340716
1.17616279441319
1.176239903376695
1.176315771996887
1.176388109262891
1.176455078503533
1.176515507978042
1.176563938586883
1.176601834302344
1.176634889521883
1.17666103309948
1.176680067910309
1.176691799119593
1.176695046269181
1.176689709629863
1.176676847891807
1.176654653173978
1.176622341759085
1.176579679984238
1.176526819619817
1.176464274815913
1.176393018887896
1.176314443336139
1.176230277717945
1.176142460759669
1.176053003854553
1.17596442457439
1.175879666348775
1.175801235045261
1.175733359519112
1.175681770960464
1.175644829104527
1.175613935582707
1.175591482293407
1.175577233204113
1.175571838024097
1.175574893145874
1.175584055727526
1.175600593483198
1.175625378821524
1.175658815234516
1.175700800124744
1.175750942389926
1.175808652762762
1.175873055301211
1.175942953000132
1.176016933310011
1.176093455044546
1.176170998472712
1.176248143401459
1.176322676639159
1.176391930793019
1.176455123314889
1.176508428594773
1.176547199775001
1.176581409490552
1.176608814510766
1.17662922840565
1.176642902596042
1.176648294571938
1.176645089853051
1.176634913556193
1.17661616850118
1.17658776152815
1.176549221446835
1.176500597399124
1.176442282062606
1.17637499833556
1.176299826702163
1.176218251673786
1.176132111746293
1.176043354906644
1.175954262707041
1.175867855229645
1.175786968427786
1.175714876008533
1.175657821472993
1.17561797096071
1.17558565444128
1.17556077414595
1.175543839510323
1.17553582493794
1.175536308866089
1.175543048183207
1.175556683279229
1.175578178519791
1.175608128902026
1.175646597528199
1.175693319514091
1.175747835770746
1.175809439530968
1.175877122590663
1.175949613238644
1.176025445471468
1.176103105075282
1.176181140191866
1.176257493515774
1.176329363643926
1.176395347712783
1.176452611221776
1.176495056245497
1.176529669486466
1.176558460699116
1.176580421043367
1.176595685236028
1.176602843078181
1.176601699108722
1.176593744739025
1.176577899545478
1.176552944205067
1.176518261884355
1.176473781558024
1.176419695733202
1.176356442921687
1.176284864764458
1.176206266537797
1.176122335677373
1.176034910467102
1.175946044689964
1.175858609744532
1.175775676239519
1.175700076334937
1.175637569440077
1.175593047879816
1.175559675500564
1.175532559989445
1.175513595594335
1.175503014617777
1.175500598072724
1.175505185472019
1.175515976689938
1.175534305249502
1.175560863711268
1.175595878600779
1.175639195452084
1.175690460231322
1.175749130847731
1.175814389599344
1.175885116457505
1.175959950274733
1.176037390231575
1.176115932220218
1.176193763158968
1.176268176993035
1.176336839243301
1.176397729176609
1.17644564782659
1.176480415136603
1.176510643132768
1.176533901395474
1.176550329132356
1.176558898319276
1.176559611066865
1.176553505193311
1.176540150710494
1.176518290665608
1.176487234435158
1.176446726639092
1.176396785159976
1.176337702604488
1.176270162571398
1.176195223998505
1.17611428944128
1.176029041617637
1.175941353762038
1.175853740035062
1.175769394284131
1.175691263288947
1.17562381655931
1.175573342988905
1.175538620184595
1.175509644589172
1.175488612342273
1.175475339656619
1.175470301732689
1.175472877026416
1.17548115047657
1.17549650052018
1.175519834637847
1.175551496739681
1.175591421208438
1.175639386482333
1.175695016187688
1.175757640287711
1.17582627293343
1.17589970557737
1.175976540995579
1.176055273241388
1.176134392657828
1.176211796341466
1.176284777846233
1.176351572270977
1.17640888189072
1.176451508554855
1.176484627854061
1.176512236924197
1.176532891284918
1.176546946723796
1.176553222190911
1.176551626240313
1.176543976312089
1.176529379997423
1.176506905938573
1.176475997753719
1.176436538145703
1.176388712814176
1.176332984700037
1.176270101298001
1.176201070480644
1.176127192422737
1.176050041050031
1.175971296715293
1.175892983089693
1.175817675093791
1.175747638180293
1.175685577881152
1.175636286466462
1.17560068900312
1.175570953914089
1.175547563859396
1.175531149486767
1.1755216317296
1.175519258434634
1.175523419569301
1.175532832139684
1.175548316538286
1.175570356276987
1.175599294708369
1.175635168361006
1.175677734956032
1.175726551326533
1.175781024031595
1.175840413021666
1.175903783002153
1.175970018737335
1.176037951428851
1.176106103233305
1.176172382853201
1.176234978369772
1.1762917773085
1.176338238647483
1.176373069472409
1.176402735068705
1.176425935678249
1.176442204315687
1.176450794867073
1.176451648976357
1.176445712728087
1.176433401570889
1.176414004587642
1.17638694603172
1.176351911354629
1.176308988210018
1.176258578088999
1.176201340986315
1.176138173764202
1.176070215613427
1.175998800918244
1.175925413489066
1.175852042129963
1.175781123449555
1.175714804204475
1.175656371918642
1.175610562366816
1.175577107627384
1.175548995133334
1.175527722023908
1.175513248090194
1.175506388066698
1.175507033120779
1.175513282729235
1.175525386234529
1.175543940109227
1.175569473214096
1.175602180009153
1.175641909870145
1.175688299548265
1.175740843193718
1.175798856717983
1.17586143592909
1.175927478395013
1.175995805306563
1.176065042141756
1.176133143066753
1.176198002147263
1.176257807526678
1.176308293336718
1.176346041178416
1.176376842346572
1.176401845805995
1.176419704567963
1.176430624929654
1.176433966211398
1.176429833266106
1.176420035110713
1.176403571665348
1.176379815385106
1.176348315278049
1.176309037385389
1.176262304997978
1.176208635529809
1.176148705964623
1.176083456322803
1.176014118994769
1.175942063022173
1.175868973691725
1.175797204198071
1.175729036560078
1.175667021752473
1.175616198079219
1.175579181331691
1.175549451315251
1.175525692373975
1.175509074634964
1.175499817062298
1.175497885684248
1.175502398281963
1.17551237174007
1.175528607909645
1.175551595550465
1.175581627153866
1.175618681973426
1.175662511665176
1.175712674820194
1.175768519704857
1.17582921734614
1.175893775960778
1.175961079934513
1.1760298961977
1.176098444460705
1.176164559086679
1.176226468949924
1.176280846791008
1.176323316691117
1.176355475619369
1.176382679877346
1.176402796671778
1.176416291356736
1.176422192021403
1.176420366861096
1.176412899971363
1.176399162661602
1.176378455501126
1.176350234336167
1.176314338122991
1.176270918313591
1.176220342729075
1.176163206437713
1.176100364333263
1.176032926048171
1.175962159629371
1.175889541979551
1.175817214356341
1.175747599349456
1.175682953318497
1.175627601453832
1.175585656543005
1.17555438073701
1.175528185832988
1.175509425197214
1.175497493881746
1.17549300630406
1.175495783933721
1.175503745575199
1.175517699118946
1.175538186515714
1.175565597044695
1.175600030893792
1.175641299629917
1.175688988587545
1.175742528811033
1.175801219644361
1.175864167087028
1.175930278848701
1.175998391628074
1.176067012187898
1.176134044445587
1.176197591989074
1.176255249765005
1.176302288340657
1.176337116765782
1.176366243105953
1.176389060847457
1.176404991994213
1.176413366084051
1.176414272969361
1.176408859186758
1.176397509194514
1.17637954948519
1.17635438759448
1.176321625369227
1.176281243796532
1.176233556891678
1.17617911294407
1.176118633989359
1.176053074531418
1.175983646437393
1.175911721845397
1.175839153688289
1.17576836380234
1.175701589769347
1.175642164437002
1.175595255141244
1.175561203373726
1.175533045098196
1.175511708348407
1.175497258852681
1.175490437428433
1.175491067457058
1.17549717451748
1.175508994836571
1.175527071219001
1.175551899647785
1.175583683813216
1.175622314181037
1.175667477325741
1.175718711155975
1.175775369977949
1.17583659910036
1.175901367841883
1.175968580118633
1.176036949504176
1.176104549752393
1.176169365233587
1.176229510923172
1.176280757266491
1.176319579913657
1.176350381809853
1.176375657615232
1.176393728352301
1.176404931030489
1.176408673199877
1.176405100292561
1.176396139318894
1.176380833928986
1.176358547587033
1.176328801049545
1.176291491285378
1.176246836725697
1.176195235839188
1.176137265157411
1.176073780885354
1.176005929018673
1.175934988178802
1.175862555778146
1.175790960470204
1.175722518865327
1.175659822479088
1.175608019710201
1.175570036751971
1.175540022640154
1.17551602745542
1.175499358458897
1.175490110924083
1.175488157511794
1.175492574780595
1.175502349636857
1.175518188194969
1.175540517449607
1.175569642592627
1.175605610030501
1.175648236865786
1.175697119690273
1.175751638208134
1.175811016249759
1.175874327747613
1.175940505128177
1.176008367042801
1.176076236910998
1.176142042043401
1.176203997802009
1.176258903395561
1.176302340298852
1.176335036188561
1.17636257256471
1.17638313880322
1.176397024994547
1.176403342763131
1.176402032884954
1.176395155978379
1.176382242133406
1.176362688246832
1.176335970898535
1.176301830047037
1.176260263126875
1.176211523681939
1.17615614878926
1.176094926127419
1.176028867210178
1.175959166271565
1.175887244812973
1.175815201024699
1.175745455803103
1.175680267253682
1.175623989489918
1.175580984294995
1.175548948527918
1.17552243696772
1.175503531351268
1.175491589327807
1.175487066648456
1.175489816349361
1.175497667765332
1.17551132312608
1.175531229361734
1.175557782543824
1.175591151302447
1.175631211972493
1.175677607739309
1.175729837011371
1.175787259503107
1.175849016661799
1.175914036289321
1.17598118810436
1.176049044529286
1.176115579776845
1.1761789454108
1.176236839670531
1.176284616661176
1.176320376320784
1.176349809039532
1.176373086349276
1.17638932984613
1.17639810661331
1.176399512009154
1.176394548418011
1.176383927010207
1.176366984376092
1.176343165928808
1.176312013934432
1.176273434318181
1.176227665206727
1.176175136698314
1.17611642686909
1.176052382393542
1.175984165626091
1.175913100240004
1.175840981751583
1.175770245617341
1.175703110071426
1.175642902184502
1.175594947406035
1.175559781622736
1.17553107982383
1.175509453938575
1.175494908052174
1.175488052939923
1.175488728003425
1.175494854919326
1.175506560702604
1.17552422496582
1.175548289268632
1.175579009039127
1.175616381112138
1.175660205014166
1.175710103853294
1.175765477059171
1.175825503878594
1.175889193557752
1.175955470920844
1.176023060010786
1.176090068559405
1.176154535949897
1.176214645323078
1.176266390101048
1.176306303899164
1.176337550794395
1.176363405853238
1.176381890769808
1.176393572052437
1.176397816419414
1.176394631873941
1.176386129102381
1.176371482714578
1.176350156438753
1.176321700557591
1.176285946205019
1.176242983482267
1.176193083672484
1.176136736722789
1.176074724299643
1.17600810291315
1.175938077374991
1.175866195572091
1.175794781734197
1.175726127888356
1.175662768273839
1.175609949527453
1.175570652349032
1.175539728828277
1.17551517932811
1.17549836593732
1.175489102830966
1.175487164302225
1.175491745081874
1.175501636646581
1.175517310099256
1.175539045577704
1.175567187068115
1.175601908556899
1.17564313369761
1.175690537010584
1.175743597261166
1.175801659428498
1.175863872432199
1.17592915209076
1.175996279108535
1.176063578626456
1.176128994725843
1.176190794144863
1.176245951349497
1.176290209054873
1.176323655716454
1.176351709992777
1.176372845213051
1.176387218787979
1.176394020483158
1.176393173760708
1.176386606636257
1.176374119328642
1.176355280862885
1.176329629125284
1.17629685709659
1.176256900809219
1.176209960126393
1.176156460710029
1.176096993974966
1.176032389040251
1.175963778692552
1.175892562729359
1.175820820683741
1.175750998145785
1.175685282689813
1.175628069519184
1.17558384962909
1.175550474814471
1.175523123510598
1.175503840258765
1.175491655152994
1.175487039153972
1.175490087338648
1.175498312671325
1.175512199022828
1.175531918677633
1.17555777076378
1.175589963448576
1.175628490111994
1.175673171862892
1.175723712596615
1.175779624717438
1.175840120391097
1.175904149589326
1.175970586150885
1.176037965830016
1.176104187475058
1.176167423229086
1.176225446659183
1.176273782099084
1.176310594580199
1.176340423427578
1.176364141214801
1.176380643801942
1.176390023203695
1.176392224667694
1.176387786555843
1.176377732435279
1.176361261329836
1.176337924968545
1.176307416134768
1.176269788146157
1.176225359205268
1.176174492603423
1.176117571628688
1.176055193403524
1.175988284116436
1.175917996893916
1.175846138526161
1.175775348088709
1.175707837219927
1.175647005638763
1.175598299947692
1.175562198953488
1.175533045362152
1.175511333091861
1.175496924206321
1.175490034996337
1.175490830118848
1.175497709788938
1.175510202916917
1.175528298605559
1.175552069161357
1.175581520016304
1.175616664936051
1.175657552258601
1.175704070629021
1.175755757386525
1.175811330756063
1.175871312712847
1.175931057326236
1.176025773563134
)
;

boundaryField
{
    inlet
    {
        type            calculated;
        value           uniform 1.176395973595895;
    }
    outlet
    {
        type            calculated;
        value           uniform 1.17604695636108;
    }
    frontAndBack
    {
        type            empty;
    }
}


// ************************************************************************* //
