/*--------------------------------*- C++ -*----------------------------------*\
| =========                 |                                                 |
| \\      /  F ield         | OpenFOAM: The Open Source CFD Toolbox           |
|  \\    /   O peration     | Version:  v2012                                 |
|   \\  /    A nd           | Website:  www.openfoam.com                      |
|    \\/     M anipulation  |                                                 |
\*---------------------------------------------------------------------------*/
FoamFile
{
    version     2.0;
    format      ascii;
    class       volScalarField;
    location    "0.018";
    object      T;
}
// * * * * * * * * * * * * * * * * * * * * * * * * * * * * * * * * * * * * * //

dimensions      [0 0 0 1 0 0 0];


internalField   nonuniform List<scalar> 
1000
(
299.9955155978806
299.9864078540691
299.9736050945828
299.9658169468842
299.9589228626173
299.9525449613704
299.9470569109861
299.9430534750776
299.9402723720863
299.9383652526181
299.9375727282705
299.9381038863003
299.9396632349264
299.9418975658469
299.9450311475735
299.949136041016
299.9540768181763
299.9596803995756
299.9658186524464
299.9723982538047
299.9793261296505
299.9864962770132
299.9938017943202
300.0011447791227
300.0084497692338
300.0156735844407
300.0227217705968
300.0294800145206
300.0359437736877
300.041677072856
300.0460945674866
300.0499816982053
300.0530435026174
300.0552389628839
300.056368067775
300.0564214391518
300.0555516398099
300.0536464222376
300.0505796279762
300.0463404404481
300.0410186752661
300.0347511542614
300.0276920795381
300.0200074296231
300.0118661508616
300.003432954911
299.994861574728
299.9862768332358
299.9777997068595
299.9695956416306
299.9618053381147
299.9546154026183
299.9485826959207
299.944125375321
299.9407207779257
299.9380549895232
299.9364270063105
299.9358991882698
299.9363729581637
299.9376268560132
299.9398521151377
299.9431336756576
299.9474483114392
299.9526774833638
299.9586580191495
299.965219295335
299.9721985993713
299.9794515313185
299.9868584279568
299.9943202830831
300.0017640302465
300.0091533367328
300.0163927478736
300.0233097426951
300.0298995756856
300.0358320693227
300.0403970612936
300.0444043864829
300.0476518420126
300.0500504199733
300.0516131799756
300.0521741945623
300.0516933927223
300.0503561433101
300.0479459390589
300.0443639742273
300.0396191571199
300.0338038708297
300.0270562938128
300.0195445262362
300.0114566533509
300.0029856426563
299.9943124017092
299.9855824009135
299.9769211424126
299.9685015726855
299.9604969295659
299.9530805016437
299.9467499632386
299.9419891052286
299.9384364406392
299.9355600889256
299.9336095928882
299.9327272319179
299.9328847300978
299.9337671157797
299.9354963107633
299.9381916835792
299.9419039452379
299.9465915388056
299.952146034631
299.9584242799432
299.9652671311941
299.9725076468968
299.9799810837741
299.9875451198136
299.9951003147332
300.0025916363503
300.0099366476634
300.0169688758488
300.0236470633785
300.0297749196126
300.0346221050033
300.0387319090407
300.0421780506559
300.0448406295537
300.046731346384
300.0476667194994
300.0475983177369
300.0466771062162
300.0447898255966
300.041798150454
300.0376519677783
300.0323886731471
300.0260968176693
300.0189058352203
300.0109902928793
300.0025540064395
299.9938042959642
299.9849238733829
299.9760669592629
299.9674226103709
299.9591954083399
299.951550112501
299.944890176029
299.9397727534492
299.9360165824099
299.9329094650196
299.9306942854809
299.9295044824842
299.9292973426582
299.9298965400149
299.9312466161999
299.9334818762968
299.9366779360886
299.9408423649097
299.9459138548004
299.9517923501506
299.9583522520159
299.965439340365
299.9728804730424
299.980512282184
299.9881975974735
299.9958285993869
300.0033185121039
300.0105181299172
300.0172933615555
300.0235619343702
300.0287634473701
300.0329257349854
300.0365716488971
300.0394648191897
300.0415722702681
300.0428612743005
300.0432076743197
300.0426031047581
300.0411612538701
300.0386846810879
300.0350929367248
300.0303765794132
300.0245855757912
300.017819221892
300.0102228185401
300.0019756482585
299.9932793152124
299.984340036484
299.9753432089706
299.9664917223665
299.9580249978949
299.9501353713762
299.9431412403793
299.9376256351719
299.9336341584604
299.9303368965785
299.9278957587049
299.9263641080834
299.9258064006489
299.9261768652964
299.9272165274257
299.9290710898255
299.9318301859889
299.9355296934344
299.940143846635
299.9456051175865
299.951816668852
299.95865107956
299.9659547887157
299.973563077232
299.9813125065272
299.9890619678396
299.996713052681
300.0041093982294
300.0110292441404
300.0174564721243
300.0230506178641
300.0272711334845
300.0310719607259
300.0341308042995
300.0364413720022
300.038030640622
300.0387031188159
300.0384026504963
300.0373150910182
300.0352799824304
300.0321745359557
300.0279515499728
300.0226377063782
300.0163064975683
300.0090681057054
300.0010702805687
299.9924991735432
299.9835656270795
299.9744715208656
299.9654276796163
299.9567002053789
299.9485190243515
299.9411488059201
299.9351726475266
299.9308566155242
299.9273849007242
299.9246888458886
299.9228491085898
299.9219844285864
299.9220674020937
299.9228339123403
299.924350266005
299.926713919297
299.9299885019111
299.9341752839571
299.9392271601699
299.9450682351375
299.9515982732582
299.9586884931331
299.9661835700784
299.9739177179706
299.9817398494524
299.9895258824839
299.997108997168
300.0042441989092
300.0108700894679
300.0167739438557
300.0212656995198
300.0251311339917
300.0283597977675
300.0308800598123
300.032687446703
300.0336281416708
300.0336673084054
300.0328970908923
300.0312512282023
300.0285954455321
300.0248613482875
300.0200493337281
300.0142014852451
300.007391548804
299.9997393487531
299.9914132594965
299.982614266021
299.9735461100323
299.9644167019752
299.9554990919175
299.9470688537472
299.9393596476089
299.9328995106869
299.9281569775674
299.9245482376588
299.9216025623005
299.9195366315744
299.9183876466286
299.9181387383601
299.9186698825741
299.9198786656724
299.9218919919078
299.9247813133268
299.9285704401732
299.9332313112229
299.9387066698845
299.9449190585382
299.9517612432903
299.9590933348003
299.9667588520902
299.9746006067659
299.9824708399398
299.9902141901401
299.9975968567052
300.0044314417984
300.0105984191278
300.01554074879
300.0194079218871
300.0227810796608
300.0254488965025
300.0273912809542
300.02858837682
300.0289197398895
300.0283752065535
300.027062798312
300.0247980036106
300.0215008200093
300.0171473522293
300.0117530164454
300.0053701972219
299.9980981340394
299.99007875174
299.9814884956736
299.9725251873247
299.9633940963462
299.9543521936596
299.9456999668484
299.9376932813804
299.9307639336129
299.9254971545588
299.9217256171735
299.9185715302649
299.9162791274265
299.9148243408359
299.9142735175835
299.914585468983
299.915520989061
299.9172094847524
299.9197400127994
299.9231537370122
299.9274401337212
299.9325592158925
299.9384507616912
299.9450252842859
299.9521605296732
299.959712256727
299.9675231140217
299.9754379622941
299.983311841906
299.9909188770118
299.9979868724163
300.0044360222224
300.0098759666721
300.0138325849649
300.0173236471887
300.0201202613269
300.0222034275957
300.0235988246072
300.0241490581378
300.0238220584816
300.0227836553659
300.0208708366092
300.0179720260019
300.0140390978679
300.009077003612
300.003125738685
299.9962589916175
299.9885869463644
299.980261034246
299.9714688389658
299.9624091493987
299.9533148338405
299.9444941902516
299.9362367713077
299.9288768585637
299.9230519765955
299.9189834232145
299.9156840055901
299.9131437738527
299.9114147698389
299.9105964905741
299.9106459221791
299.9113340446019
299.9127262154209
299.9149208847078
299.9179787771479
299.9219062927563
299.9266763337212
299.9322419690236
299.9385309801305
299.9454403801458
299.9528402943394
299.9605810324741
299.9685080043559
299.9764730054947
299.9842660556425
299.9916012632651
299.998335507925
300.0041795686331
300.0085112171167
300.0120435501747
300.014981696364
300.0172227283172
300.0187804153871
300.0195108600997
300.0193941422207
300.0185824565636
300.0169655222074
300.0144188910159
300.0108795815272
300.0063402902747
300.0008205927842
299.9943651607696
299.9870598048585
299.9790376613726
299.9704708898109
299.9615470732467
299.9524758209703
299.9435502404362
299.9350838267555
299.9273657770231
299.9209841828832
299.9164386760138
299.9130314125406
299.9102629300111
299.9083266559653
299.9072463305018
299.906999614686
299.9074680290208
299.9085698638844
299.9104412569638
299.9131529036025
299.9167278962374
299.9211504142926
299.9263842542435
299.9323740089333
299.9390361347816
299.9462562326322
299.9538953041236
299.9618001129672
299.9698171086567
299.9777612244713
299.9853562801582
299.9923640603213
299.9985783912655
300.0034687632761
300.0070169055656
300.0101017505232
300.0124752910518
300.0141517528344
300.0150262419697
300.0150989962194
300.0144759279364
300.0131131371757
300.0108823337098
300.0077130133462
300.0035790670344
299.9984822566336
299.9924523697665
299.9855590923569
299.9779104210721
299.9696494364687
299.9609478361006
299.9519967906065
299.9430529277159
299.9344423075106
299.9264658188417
299.9195798519673
299.914426611156
299.9108814288595
299.9079229952857
299.9057755648587
299.904420396547
299.9039060205201
299.9041689926568
299.9050137739051
299.9065810855813
299.9089635720067
299.9121963193111
299.9162725836473
299.9211696898799
299.926849150822
299.9332424955645
299.940249015937
299.9477452810062
299.955588616979
299.9636252730758
299.9717011409587
299.9796015811763
299.9870503877651
299.9938674866291
299.9997163808366
300.0040666625002
300.0074466143651
300.0102641892037
300.0123719972786
300.0138063682253
300.0144467860229
300.014283940215
300.0135032974189
300.0120137643673
300.0097202825462
300.0065660463378
300.0025390415598
299.997658164685
299.9919706001027
299.985552572126
299.978506884829
299.9709661883421
299.9630910932183
299.9550530958891
299.9470587616374
299.9393709602215
299.9322210057241
299.9258851666091
299.9208527888949
299.9172184219146
299.9141825389141
299.9117944415962
299.9101185390707
299.9091467778177
299.9089044757933
299.909329355236
299.9102904110113
299.9118713896413
299.9141216470817
299.9170762153085
299.9207387892605
299.9250845935381
299.9300683412899
299.9356294049962
299.941692194208
299.9481611937947
299.9549225297542
299.9618568722804
299.9688133582353
299.9755785278047
299.9819674637566
299.9877645916752
299.99250650304
299.9960613239468
299.9990889387785
300.0014567212183
300.0031170338688
300.0039937478645
300.0040809282089
300.0034751294253
300.0022187311517
300.0002391658344
299.9974776559999
299.9939020644555
299.9895212912275
299.9843762615322
299.978534283266
299.9720868442574
299.9651501752827
299.9578604438586
299.9503690856681
299.9428791054706
299.9356392516648
299.9288687150241
299.9229031765493
299.9182262176278
299.9148105758459
299.9119403229537
299.9097683399157
299.9082905442475
299.9075901308663
299.9076560092041
299.9082941315073
299.9095299346646
299.9114243108988
299.9140312397925
299.9173705444944
299.9214268076392
299.9261629003763
299.9315271346405
299.9374496282992
299.9438380353184
299.9505797815941
299.9575545077191
299.9646218887012
299.9715730942242
299.9781931879491
299.9842972723376
299.9894500074168
299.9933025894862
299.9964461407444
299.9989979484164
300.0008205634263
300.0019350613194
300.0022760696569
300.0018542993419
300.0008543612556
299.9991741720305
299.9967496723684
299.9935348070962
299.9895260695148
299.9847564074014
299.9792785790211
299.9731616304969
299.9665014611115
299.9594238230913
299.9520684312172
299.944607298291
299.9372806436442
299.9303214539847
299.9239902021748
299.9188013394972
299.9150220277633
299.9119866288607
299.9095608402359
299.9078641541768
299.9069189462459
299.9067217638428
299.9071825349911
299.9082008670568
299.9098586164027
299.9122056744146
299.9152718780399
299.9190550731172
299.9235298639142
299.9286511416943
299.9343523261998
299.9405487477459
299.9471391239616
299.954009541914
299.9610341105437
299.9680310953821
299.9747794533704
299.9810984348425
299.9866484838528
299.9909830553894
299.9942652150675
299.9970416601433
299.9990947438402
300.0004719799438
300.001074188341
300.0008879367941
300.000125916926
299.9987239454852
299.9966106287482
299.993730409799
299.9900668169257
299.985635263252
299.9804732407181
299.9746414344547
299.9682270533485
299.9613433162704
299.9541196240036
299.9467067105523
299.9393231484376
299.9322162623508
299.9256164377377
299.9199653044986
299.915682854255
299.9124896400924
299.9098151437157
299.9078996678564
299.9066814675694
299.9062232864088
299.9065069105083
299.9073198381412
299.9087445374982
299.9108363333407
299.9136349507526
299.9171505859144
299.9213639609332
299.9262326978616
299.9316986673173
299.9376902983007
299.9441162881363
299.9508651009104
299.9578179627327
299.9648224328276
299.9716645559481
299.9781507849548
299.9840356785317
299.988836592027
299.9923912339248
299.9953638702362
299.997692624709
299.9993185282209
300.0001731693508
300.0002657383224
299.9997132499345
299.9985549222496
299.9967220054501
299.9941540182895
299.9908102949556
299.9866888536656
299.9818216962745
299.9762647339412
299.9700916140189
299.9633997180698
299.9563127075386
299.9489706167383
299.9415625764395
299.9343358213753
299.92751880911
299.9214518443299
299.9166625690472
299.9131859437487
299.9103109939177
299.9081324970717
299.9066571870218
299.9059607107853
299.9060250572053
299.9066486324131
299.9078555330499
299.9097011726715
299.9122361758706
299.9154813103015
299.9194253560114
299.9240362729254
299.9292668417501
299.9350511004835
299.9413017562892
299.9479135592874
299.9547745938978
299.9617535251232
299.9686537235766
299.9752694625369
299.9814083695235
299.9866388023112
299.9906011360621
299.9937448061132
299.9963244448548
299.9981687197947
299.999312047227
299.9996939752735
299.9993293575217
299.9984148490057
299.9968528278079
299.9945783192151
299.9915423873131
299.9877344793337
299.9831768449223
299.9779101055269
299.9719930561509
299.9655130416936
299.9585869957611
299.9513454023791
299.9439513016568
299.9366424035492
299.9296552214044
299.9232543628277
299.9179655179794
299.914087541977
299.9110231258729
299.9085732092319
299.9068712849687
299.9059270995389
299.9057276683437
299.9061787107739
299.9071767721427
299.9087939337868
299.9110737827213
299.9140474545028
299.9177196528813
299.9220716657478
299.9270622657287
299.9326280834711
299.9386898407878
299.945152964068
299.951908443553
299.9588356656932
299.9657634784033
299.9724803206175
299.9788040580892
299.9844080360636
299.9888413519903
299.992178351171
299.9949887224427
299.9970876976063
299.998504905306
299.9991496894777
299.9990160266923
299.9983142149174
299.9969962732055
299.9950006405952
299.9922738786379
299.9887894145533
299.9845469452401
299.9795723020575
299.973920253402
299.9676711485023
299.9609281904788
299.9538132439681
299.9464713855143
299.9391167881211
299.9319965994957
299.9253413789843
299.9195957063213
299.9152049948259
299.9119341818242
299.9092273479936
299.9072970644788
299.9060777690222
299.9056160044614
299.9058967802178
299.9066984587656
299.9080927191503
299.9101251860457
299.9128362798646
299.9162431861203
299.9203332412715
299.9250699759481
299.930402140304
299.9362643273824
299.9425688524216
299.9492062290093
299.9560610527142
299.9629875835718
299.969779038028
299.9762467606416
299.9821558469704
299.9870321706963
299.990681888181
299.9936858199802
299.9960614974069
299.9977192921507
299.9986150408332
299.998758489399
299.9982519424745
299.9971679671391
299.9954388397022
299.9930079473493
299.9898285461637
299.9858909966955
299.9812195591225
299.9758580843197
299.9698655271138
299.9633282622958
299.9563648959329
299.9491105132543
299.9417483807604
299.9345271192864
299.927673206869
299.9215263535407
299.9166303407744
299.913039976818
299.9101095336744
299.907901516732
299.9064163669528
299.9057164527979
299.9057854011028
299.9064110091111
299.9076062192924
299.9094097838367
299.9118667730255
299.9150032390697
299.9188188241639
299.923293022366
299.9283873147521
299.9340403474433
299.9401682926031
299.9466699753923
299.9534356129327
299.9603349374283
299.9671747858943
299.9737550438395
299.9798902917835
299.985171638253
299.9892453675094
299.9924344776103
299.9950732535727
299.9969598136313
299.9981519970215
299.9985851814232
299.9982601979744
299.9973924512635
299.9958976815639
299.9937211474061
299.9908169291228
299.9871677572235
299.9827827862572
299.977689659579
299.971938337418
299.9656085574612
299.9588081177782
299.9516599651173
299.944322080698
299.9370317193783
299.9300228813242
299.9235543222828
299.9181617573254
299.9141496049778
299.9109923384715
299.9084858243364
299.9067691565965
299.905823381616
299.9056254712332
299.9060932116105
299.9071031930021
299.9087035000259
299.910922727035
299.9137959733698
299.9173409711448
299.9215498888011
299.9263894567368
299.9318064204051
299.9377338702232
299.9440848867716
299.9507487627486
299.9576010089552
299.964470646861
299.9711478241115
299.9774556465714
299.9830853421734
299.9876024591765
299.9910161018976
299.9938793455586
299.9960364026465
299.9975033604578
299.9981975359969
299.9981111412416
299.9974409443553
299.9961665311222
299.9942439069852
299.991625892073
299.9882811218809
299.9842030297328
299.9794119716657
299.973951347452
299.967881475363
299.961286940316
299.9542833322381
299.9470135092661
299.9396897361077
299.9325616769005
299.9258526850151
299.9200115284687
299.9154968104845
299.9120892894573
299.9092967239048
299.9073278869461
299.9060837712399
299.9056124760879
299.9059237247406
299.9067635728728
299.9081814034705
299.9101947996043
299.9128342875416
299.9161210978934
299.9200545307253
299.9246162996866
299.9297761516813
299.9354842801504
299.9416602221531
299.9481967461663
299.9549788488795
299.9618570106856
299.9686166915946
299.9750712414593
299.9809933315076
299.9859261294202
299.9896824267555
299.992725555435
299.9951445360451
299.9968269423487
299.9977824622389
299.9980054010029
299.9975501850811
299.9965222330858
299.9948413269179
299.9924624353159
299.989355635374
299.9855280905599
299.9810135689515
299.9758493617728
299.970073043987
299.9637416757774
299.9569435912082
299.9497890047611
299.9424550269085
299.935204483574
299.9282567266104
299.9219532875182
299.9168493290304
299.9129999656274
299.9098410452114
299.9074358311215
299.905783582088
299.9049694897411
299.9049228774282
299.9054480214193
299.9066339144775
299.9084991935821
299.9110511406901
299.9143008853216
299.9182270684776
299.9227778231632
299.9279262257896
299.9337397570443
299.9403057760475
299.9477038228601
299.9547348533626
299.9623939074986
)
;

boundaryField
{
    inlet
    {
        type            fixedValue;
        value           uniform 300;
    }
    outlet
    {
        type            inletOutlet;
        inletValue      uniform 300;
        value           uniform 299.962744136761;
    }
    frontAndBack
    {
        type            empty;
    }
}


// ************************************************************************* //
