/*--------------------------------*- C++ -*----------------------------------*\
| =========                 |                                                 |
| \\      /  F ield         | OpenFOAM: The Open Source CFD Toolbox           |
|  \\    /   O peration     | Version:  v2012                                 |
|   \\  /    A nd           | Website:  www.openfoam.com                      |
|    \\/     M anipulation  |                                                 |
\*---------------------------------------------------------------------------*/
FoamFile
{
    version     2.0;
    format      ascii;
    class       volVectorField;
    location    "0.018";
    object      U;
}
// * * * * * * * * * * * * * * * * * * * * * * * * * * * * * * * * * * * * * //

dimensions      [0 1 -1 0 0 0 0];


internalField   nonuniform List<vector> 
1000
(
(0.001115322475008208 0 0)
(-0.02689916038935533 0 0)
(-0.0339072438116912 0 0)
(-0.04580725104402552 0 0)
(-0.05610215118413768 0 0)
(-0.06508716021033199 0 0)
(-0.07134594157697613 0 0)
(-0.07390431994722529 0 0)
(-0.07399589407923567 0 0)
(-0.07225038451503438 0 0)
(-0.06739466586321279 0 0)
(-0.05909011991814148 0 0)
(-0.04942243494096015 0 0)
(-0.03761513796059215 0 0)
(-0.02351046380182295 0 0)
(-0.007261032613043235 0 0)
(0.01068651459208057 0 0)
(0.0297806306058985 0 0)
(0.04950709949290921 0 0)
(0.06940128483392136 0 0)
(0.08902653037121351 0 0)
(0.1079669871026099 0 0)
(0.125830501514207 0 0)
(0.1422796179201483 0 0)
(0.157104857413017 0 0)
(0.1702110354462602 0 0)
(0.181395465296515 0 0)
(0.1905648018701747 0 0)
(0.1978617971913552 0 0)
(0.2021218781858383 0 0)
(0.2029298813644592 0 0)
(0.20151952522444 0 0)
(0.1980510180606063 0 0)
(0.1927072367277303 0 0)
(0.185520051525157 0 0)
(0.1754880117253551 0 0)
(0.1650925784304881 0 0)
(0.1531389079293627 0 0)
(0.1394929230831911 0 0)
(0.1242118003816794 0 0)
(0.1076540456696789 0 0)
(0.0902580421692442 0 0)
(0.0724107000513505 0 0)
(0.05445918360064655 0 0)
(0.03673413437104392 0 0)
(0.01953743455653753 0 0)
(0.003113552163025566 0 0)
(-0.01239327416139815 0 0)
(-0.02685479108125438 0 0)
(-0.04001803092892253 0 0)
(-0.05168146031302841 0 0)
(-0.06147000986654566 0 0)
(-0.06805433574703541 0 0)
(-0.07055384064355888 0 0)
(-0.07046127781765092 0 0)
(-0.06872080498188606 0 0)
(-0.06480999423417468 0 0)
(-0.0575071004314115 0 0)
(-0.04893548189161653 0 0)
(-0.03877235289537316 0 0)
(-0.02660545541192462 0 0)
(-0.01217472762309925 0 0)
(0.004435744979992208 0 0)
(0.02282406253748298 0 0)
(0.0424016317319957 0 0)
(0.06252921440031711 0 0)
(0.08260218925042506 0 0)
(0.1020960416461196 0 0)
(0.1205954816713382 0 0)
(0.1377999017058207 0 0)
(0.1534988080981691 0 0)
(0.1675559740756881 0 0)
(0.1797626007331477 0 0)
(0.1898358007850982 0 0)
(0.1977747135973542 0 0)
(0.2028012068857965 0 0)
(0.2041222788054071 0 0)
(0.202903398282204 0 0)
(0.1997187253911654 0 0)
(0.1947229820162645 0 0)
(0.1881499283710863 0 0)
(0.1790203311627155 0 0)
(0.1690057208832455 0 0)
(0.1579709152070087 0 0)
(0.1455372404972022 0 0)
(0.1314897108891713 0 0)
(0.1159489674806147 0 0)
(0.09921872207266558 0 0)
(0.08166387658299268 0 0)
(0.06367737576091656 0 0)
(0.04566461364268801 0 0)
(0.02800596624141329 0 0)
(0.01102318710958975 0 0)
(-0.005074247601112893 0 0)
(-0.020144274790466 0 0)
(-0.03391974672442763 0 0)
(-0.04611580959939757 0 0)
(-0.05641655907177553 0 0)
(-0.06364945698550606 0 0)
(-0.06663503418384581 0 0)
(-0.06682098464018288 0 0)
(-0.06535328138854257 0 0)
(-0.06186799863638064 0 0)
(-0.05577558293351614 0 0)
(-0.04754610961077582 0 0)
(-0.03827040687162368 0 0)
(-0.02734832716834179 0 0)
(-0.0144395793868294 0 0)
(0.0005908087709369641 0 0)
(0.01759148694977365 0 0)
(0.03618321265604039 0 0)
(0.05584392405312281 0 0)
(0.07596791374240948 0 0)
(0.09593696978632722 0 0)
(0.1152086286595876 0 0)
(0.1333532689168351 0 0)
(0.1500343229432361 0 0)
(0.1650512215603278 0 0)
(0.1782476496973617 0 0)
(0.1892300087312054 0 0)
(0.1978481036537851 0 0)
(0.2038651769868141 0 0)
(0.2060458416569473 0 0)
(0.2052630267997399 0 0)
(0.2025458921349962 0 0)
(0.1978799592107718 0 0)
(0.1916573600220727 0 0)
(0.183789622907053 0 0)
(0.1737593466440635 0 0)
(0.1633987747577006 0 0)
(0.151842664500654 0 0)
(0.1388785734950441 0 0)
(0.1244261041018189 0 0)
(0.1086398086509761 0 0)
(0.09180220783692207 0 0)
(0.07424341709712226 0 0)
(0.05632277555217948 0 0)
(0.03842572646906137 0 0)
(0.0209476673193593 0 0)
(0.00421699065571291 0 0)
(-0.01153767425321944 0 0)
(-0.02600420805576388 0 0)
(-0.03880527130355951 0 0)
(-0.04966465776019988 0 0)
(-0.05765192238862543 0 0)
(-0.0613896889726924 0 0)
(-0.06195276604600421 0 0)
(-0.06071250972408921 0 0)
(-0.05763877184814244 0 0)
(-0.05262535755277453 0 0)
(-0.04463437915309573 0 0)
(-0.03604988832175196 0 0)
(-0.02599720186909834 0 0)
(-0.01424221461105426 0 0)
(-0.0005508500708928331 0 0)
(0.01510077704871614 0 0)
(0.03249928432360372 0 0)
(0.05125710961825791 0 0)
(0.07087487480213828 0 0)
(0.09079965514788001 0 0)
(0.1104753699148625 0 0)
(0.1293725749756536 0 0)
(0.1470277301260364 0 0)
(0.1631236859318122 0 0)
(0.1774288734593044 0 0)
(0.1894747447982301 0 0)
(0.1989757698647253 0 0)
(0.2060148454576208 0 0)
(0.2092296531887216 0 0)
(0.20906721661501 0 0)
(0.2068699308322121 0 0)
(0.2026972072308784 0 0)
(0.1969664036817127 0 0)
(0.1898777885241071 0 0)
(0.1802233382446949 0 0)
(0.1702901198449458 0 0)
(0.1593754079072985 0 0)
(0.1472523426942312 0 0)
(0.133734188131109 0 0)
(0.1188761662885519 0 0)
(0.1028621646211602 0 0)
(0.08591745873714292 0 0)
(0.0683143195092957 0 0)
(0.05040444192904063 0 0)
(0.03259869895168667 0 0)
(0.01529001405248591 0 0)
(-0.001211185085258267 0 0)
(-0.01653826657196427 0 0)
(-0.03020514637492651 0 0)
(-0.04187745797194152 0 0)
(-0.05082402325646853 0 0)
(-0.05557671573972976 0 0)
(-0.05665393949347396 0 0)
(-0.0557597190433839 0 0)
(-0.05316848521898238 0 0)
(-0.04873773926305404 0 0)
(-0.04160086804537073 0 0)
(-0.03332823969204939 0 0)
(-0.02394495646896416 0 0)
(-0.01312488098992101 0 0)
(-0.000565430046065565 0 0)
(0.01385454825378511 0 0)
(0.03004531055062281 0 0)
(0.04774048555131498 0 0)
(0.06656021149218673 0 0)
(0.08604894640042533 0 0)
(0.1056935075335134 0 0)
(0.124958996188411 0 0)
(0.1433438377672474 0 0)
(0.1604177757210322 0 0)
(0.1758191462117916 0 0)
(0.1890860166346603 0 0)
(0.1997776532850257 0 0)
(0.207869015185848 0 0)
(0.2123620260341521 0 0)
(0.2130826623617544 0 0)
(0.2114665991309481 0 0)
(0.2078962546290346 0 0)
(0.202606784405615 0 0)
(0.195927877449577 0 0)
(0.1873347340537213 0 0)
(0.1775335226559512 0 0)
(0.1671708242866113 0 0)
(0.1557981541433614 0 0)
(0.1431641956551348 0 0)
(0.1292339743444547 0 0)
(0.1141108960999948 0 0)
(0.09794233367602645 0 0)
(0.08092942554573468 0 0)
(0.06336114447500311 0 0)
(0.04559967337455464 0 0)
(0.02804025071567492 0 0)
(0.01104557129064456 0 0)
(-0.004988337403567564 0 0)
(-0.01950926677623567 0 0)
(-0.03206889817357773 0 0)
(-0.04203862591544132 0 0)
(-0.04798318068984975 0 0)
(-0.04976219376742726 0 0)
(-0.04923327150030409 0 0)
(-0.04698834872136624 0 0)
(-0.04292994965061089 0 0)
(-0.03681793888628153 0 0)
(-0.02863318056221192 0 0)
(-0.01977558543465424 0 0)
(-0.009655311968307564 0 0)
(0.001989080640256774 0 0)
(0.01535942760209501 0 0)
(0.03046072838099674 0 0)
(0.04711969826034725 0 0)
(0.06504991357109836 0 0)
(0.08388295458310517 0 0)
(0.1031811822647637 0 0)
(0.1224666774552641 0 0)
(0.1412444286214497 0 0)
(0.159014898524718 0 0)
(0.1753514617717599 0 0)
(0.1898251098399574 0 0)
(0.2017897723887038 0 0)
(0.2109542345380581 0 0)
(0.2169572410120071 0 0)
(0.2188400909016622 0 0)
(0.2178157960609352 0 0)
(0.2148764577297989 0 0)
(0.2100691090628955 0 0)
(0.2038341111872283 0 0)
(0.19631623196689 0 0)
(0.1864795884048071 0 0)
(0.1766773971669715 0 0)
(0.1658552916364352 0 0)
(0.1539245247328222 0 0)
(0.1407544417611472 0 0)
(0.1263687812072406 0 0)
(0.1108812907719135 0 0)
(0.09445192618813213 0 0)
(0.07729109755957059 0 0)
(0.05967817858234052 0 0)
(0.04197497583418593 0 0)
(0.02456716467191756 0 0)
(0.007852969571919638 0 0)
(-0.007595032494599873 0 0)
(-0.02117183449107605 0 0)
(-0.03233283086469102 0 0)
(-0.03983297163886214 0 0)
(-0.04269626311600898 0 0)
(-0.0426414070352265 0 0)
(-0.04082126830946248 0 0)
(-0.03721338957099197 0 0)
(-0.03192317851529877 0 0)
(-0.02396798286206309 0 0)
(-0.01554990990058849 0 0)
(-0.005982750520925602 0 0)
(0.004922907801043981 0 0)
(0.01739381664647779 0 0)
(0.03150745659768325 0 0)
(0.04717062247438435 0 0)
(0.06417044414422919 0 0)
(0.08221460439762758 0 0)
(0.1009482275153002 0 0)
(0.1199640648268615 0 0)
(0.1388009204960718 0 0)
(0.1569625849123404 0 0)
(0.1740063371733521 0 0)
(0.1894870163880281 0 0)
(0.2026786577882042 0 0)
(0.2130964749865091 0 0)
(0.2206556986490434 0 0)
(0.2239860025154572 0 0)
(0.2238004931924289 0 0)
(0.2215862151576995 0 0)
(0.2174652891310809 0 0)
(0.2118499088677676 0 0)
(0.204958333011721 0 0)
(0.195757308311021 0 0)
(0.1863091633100122 0 0)
(0.1760540697887101 0 0)
(0.1647885834844286 0 0)
(0.1523196247361535 0 0)
(0.1386481254238938 0 0)
(0.1238647585803368 0 0)
(0.1080745967768561 0 0)
(0.09140865195445347 0 0)
(0.07408228515121781 0 0)
(0.05641978333605117 0 0)
(0.03879855996405155 0 0)
(0.02159897426059884 0 0)
(0.005357260262999329 0 0)
(-0.009228910591540268 0 0)
(-0.02159550775851086 0 0)
(-0.03068697076518043 0 0)
(-0.03497173439865655 0 0)
(-0.03558817997287151 0 0)
(-0.03429539996871831 0 0)
(-0.03120195657069217 0 0)
(-0.02637050554593231 0 0)
(-0.0191665274136085 0 0)
(-0.0108688315560503 0 0)
(-0.00170933840701816 0 0)
(0.008606954478569167 0 0)
(0.02034765073687056 0 0)
(0.03363409125481123 0 0)
(0.04842519059994858 0 0)
(0.06455804106016168 0 0)
(0.08180128977878162 0 0)
(0.09987664343511134 0 0)
(0.1184488728715843 0 0)
(0.137113658912715 0 0)
(0.1554157703874716 0 0)
(0.1729014323887498 0 0)
(0.1891123394390651 0 0)
(0.2034011651659855 0 0)
(0.2151271351887424 0 0)
(0.2240408410976958 0 0)
(0.2290528266190751 0 0)
(0.230006829235843 0 0)
(0.2285521319177843 0 0)
(0.2252232900455516 0 0)
(0.2202316062534308 0 0)
(0.2138664143123319 0 0)
(0.2055766042644287 0 0)
(0.1963752761408542 0 0)
(0.1866102024016227 0 0)
(0.1759312597147978 0 0)
(0.1641085790404818 0 0)
(0.1511080051975486 0 0)
(0.1369840654477715 0 0)
(0.1217938350431219 0 0)
(0.1056254209342083 0 0)
(0.08865487008553879 0 0)
(0.07115391229251593 0 0)
(0.05346244345883877 0 0)
(0.03594290690489742 0 0)
(0.01907485268536094 0 0)
(0.003564951654233013 0 0)
(-0.009934331702746255 0 0)
(-0.0205360980087576 0 0)
(-0.02660130882500727 0 0)
(-0.02821421785654468 0 0)
(-0.02745895250101322 0 0)
(-0.02490979369658441 0 0)
(-0.02054868182956363 0 0)
(-0.01427260289711598 0 0)
(-0.005999255638267218 0 0)
(0.002781470315339284 0 0)
(0.01264657231848869 0 0)
(0.02380303374004651 0 0)
(0.03641321882537781 0 0)
(0.05047165586814726 0 0)
(0.06584626303016246 0 0)
(0.08234949590613373 0 0)
(0.0997603199987433 0 0)
(0.1178054364915192 0 0)
(0.1361449917901487 0 0)
(0.1543769912025406 0 0)
(0.1720606668856084 0 0)
(0.1887662595572405 0 0)
(0.2039487318203005 0 0)
(0.2168355417382035 0 0)
(0.226968168929899 0 0)
(0.2337567131997375 0 0)
(0.2361095181048706 0 0)
(0.2354281510656401 0 0)
(0.2329314725587433 0 0)
(0.2286511411893848 0 0)
(0.2229029697031781 0 0)
(0.2155552452597948 0 0)
(0.2066020972963684 0 0)
(0.1973321547933206 0 0)
(0.1871671351503653 0 0)
(0.1759169575580976 0 0)
(0.1634932460151208 0 0)
(0.1499203264084517 0 0)
(0.1352546176385789 0 0)
(0.1195742813363064 0 0)
(0.1030074226682641 0 0)
(0.08575491239143795 0 0)
(0.06810957895787612 0 0)
(0.05041971210691667 0 0)
(0.03310379164678703 0 0)
(0.01681579429753318 0 0)
(0.002305739690040194 0 0)
(-0.00967907847496649 0 0)
(-0.01769188199626736 0 0)
(-0.02066660740973909 0 0)
(-0.02051986164248762 0 0)
(-0.01854268392293331 0 0)
(-0.01473309207262804 0 0)
(-0.009213625415521197 0 0)
(-0.001198415115328228 0 0)
(0.007268060399838325 0 0)
(0.01674438466189707 0 0)
(0.02741601525676366 0 0)
(0.03945897392532616 0 0)
(0.05289682871304411 0 0)
(0.06762498329264865 0 0)
(0.08347975474586132 0 0)
(0.1002682328438578 0 0)
(0.1177573921652614 0 0)
(0.1356636469223862 0 0)
(0.1536445156172085 0 0)
(0.1713036972931836 0 0)
(0.1882527408491788 0 0)
(0.2040236441793497 0 0)
(0.2178580399050513 0 0)
(0.2291833182692733 0 0)
(0.2375701224099538 0 0)
(0.2415431535393778 0 0)
(0.241868356434865 0 0)
(0.2402447296281056 0 0)
(0.2367750336783098 0 0)
(0.2317702075842597 0 0)
(0.2253584061922144 0 0)
(0.2167585136050286 0 0)
(0.2080525178407921 0 0)
(0.1983870355980838 0 0)
(0.187639652541734 0 0)
(0.1756887004668252 0 0)
(0.1625493307265218 0 0)
(0.1482900718494745 0 0)
(0.1329713050288471 0 0)
(0.1166751360869523 0 0)
(0.09956387053801978 0 0)
(0.0819055738114669 0 0)
(0.06403468411643258 0 0)
(0.04631685603021622 0 0)
(0.02931224992731243 0 0)
(0.01381713296642552 0 0)
(0.0005400700960990759 0 0)
(-0.009344401086226089 0 0)
(-0.01409513905247736 0 0)
(-0.01481403444785645 0 0)
(-0.01349372948212644 0 0)
(-0.01033080920044506 0 0)
(-0.005376644473029398 0 0)
(0.001854571741196146 0 0)
(0.01017938459824307 0 0)
(0.01929292178528854 0 0)
(0.02950086521952124 0 0)
(0.04101757538899366 0 0)
(0.05389422411342405 0 0)
(0.06804953624990662 0 0)
(0.08333366664124776 0 0)
(0.09957084337037582 0 0)
(0.1165648256057679 0 0)
(0.1340792919378774 0 0)
(0.1518207971000507 0 0)
(0.1694416690862081 0 0)
(0.1865708410138411 0 0)
(0.2028426789440647 0 0)
(0.2177466571785305 0 0)
(0.2305850459520835 0 0)
(0.2408967234175781 0 0)
(0.2479629016821386 0 0)
(0.2506703012435985 0 0)
(0.2504217726809875 0 0)
(0.2485345315887069 0 0)
(0.245006255750359 0 0)
(0.240092094623178 0 0)
(0.2335417690779705 0 0)
(0.2256634910992634 0 0)
(0.2173986651333325 0 0)
(0.2083800475107635 0 0)
(0.1984361642962577 0 0)
(0.1874933060194857 0 0)
(0.1755936803743868 0 0)
(0.1628106431833536 0 0)
(0.1492089448223571 0 0)
(0.1348874793325819 0 0)
(0.1200208879019765 0 0)
(0.1048562306374488 0 0)
(0.08968496950053662 0 0)
(0.07481701135520197 0 0)
(0.06068073520026211 0 0)
(0.04788018959266217 0 0)
(0.03692591827144803 0 0)
(0.0285277625101712 0 0)
(0.02392452822307006 0 0)
(0.02278283952204351 0 0)
(0.0234881807063912 0 0)
(0.02569574707072359 0 0)
(0.02929357259141335 0 0)
(0.03411309214425542 0 0)
(0.04099742362918395 0 0)
(0.048164125187761 0 0)
(0.05601107168767048 0 0)
(0.06455293984744352 0 0)
(0.0738744215706918 0 0)
(0.08398863956722974 0 0)
(0.09482431940179428 0 0)
(0.1062796385324984 0 0)
(0.1182605772660502 0 0)
(0.1306592287780456 0 0)
(0.1433270602293615 0 0)
(0.1560743196417717 0 0)
(0.1686816882453494 0 0)
(0.1809258272871581 0 0)
(0.1924990260023183 0 0)
(0.2029152264297728 0 0)
(0.2117979059977527 0 0)
(0.2186597648751224 0 0)
(0.222339459604653 0 0)
(0.2231175296297357 0 0)
(0.2223054692057538 0 0)
(0.2200525264167704 0 0)
(0.2165357390224729 0 0)
(0.2119039840774666 0 0)
(0.2051579661613808 0 0)
(0.1984074621564108 0 0)
(0.1909077054554592 0 0)
(0.1826992662833704 0 0)
(0.1736757752834357 0 0)
(0.1637947816273276 0 0)
(0.1531015156014592 0 0)
(0.1416672634486137 0 0)
(0.1295639967843617 0 0)
(0.1168986376604301 0 0)
(0.103851630646124 0 0)
(0.09065782874846111 0 0)
(0.07758182880615586 0 0)
(0.06503734255105829 0 0)
(0.05359029060652077 0 0)
(0.04372002328609015 0 0)
(0.03627632611252713 0 0)
(0.03251793037391498 0 0)
(0.03178123555996885 0 0)
(0.03263731099805901 0 0)
(0.03501452623917575 0 0)
(0.03880689436613141 0 0)
(0.04409170219310712 0 0)
(0.05099626316032329 0 0)
(0.05823654944849645 0 0)
(0.0662056350999056 0 0)
(0.07495100208030374 0 0)
(0.08452484828150697 0 0)
(0.09489326872957894 0 0)
(0.1059632598961153 0 0)
(0.1176300801529382 0 0)
(0.1297843684101393 0 0)
(0.1423003788669752 0 0)
(0.1550224156286021 0 0)
(0.1677513704402804 0 0)
(0.1802690295128852 0 0)
(0.1923070752530489 0 0)
(0.2034171011204418 0 0)
(0.2131363995222794 0 0)
(0.221024244914742 0 0)
(0.2260516609690348 0 0)
(0.227719342310536 0 0)
(0.227351840844648 0 0)
(0.2256104218472699 0 0)
(0.2225144834344049 0 0)
(0.2182214924019435 0 0)
(0.2118717485310241 0 0)
(0.2051246827802901 0 0)
(0.1977186589278731 0 0)
(0.1896196106559533 0 0)
(0.1807274093711803 0 0)
(0.1710159289182565 0 0)
(0.1605171300794462 0 0)
(0.14928636545681 0 0)
(0.1373931872483822 0 0)
(0.12494089557159 0 0)
(0.1120779985116752 0 0)
(0.09899805760668588 0 0)
(0.08592270604841279 0 0)
(0.07317393232029015 0 0)
(0.06126897085219719 0 0)
(0.05071555541137873 0 0)
(0.04217315712848158 0 0)
(0.0369120218582554 0 0)
(0.03522882892630187 0 0)
(0.03560490505233839 0 0)
(0.0374522853495881 0 0)
(0.04074503247637916 0 0)
(0.04534473837282093 0 0)
(0.05210544577381889 0 0)
(0.05911058772994936 0 0)
(0.06685759860672917 0 0)
(0.07533932897314838 0 0)
(0.08461983133821074 0 0)
(0.09469706443185938 0 0)
(0.1054820934861784 0 0)
(0.116850283672403 0 0)
(0.128689662394339 0 0)
(0.1408980748649943 0 0)
(0.153348805148786 0 0)
(0.1658668056610528 0 0)
(0.1782545900425956 0 0)
(0.1903040883646566 0 0)
(0.2016591909640597 0 0)
(0.2118330954996949 0 0)
(0.2204490550208071 0 0)
(0.2267270687437072 0 0)
(0.229534071524562 0 0)
(0.2297937861157367 0 0)
(0.228654465974251 0 0)
(0.226032995739796 0 0)
(0.2221122540251596 0 0)
(0.2165704240312537 0 0)
(0.2098202390335805 0 0)
(0.2026179742084758 0 0)
(0.1947379610283748 0 0)
(0.1860831966378768 0 0)
(0.1765963555355611 0 0)
(0.1662986063294981 0 0)
(0.1552678926163443 0 0)
(0.1435954557930572 0 0)
(0.1313720245296027 0 0)
(0.1187110078231278 0 0)
(0.1057814960555011 0 0)
(0.09278857460452908 0 0)
(0.07997941961140065 0 0)
(0.06778813358960496 0 0)
(0.05675954341581476 0 0)
(0.04741087446503554 0 0)
(0.04079643085076781 0 0)
(0.03799844173727811 0 0)
(0.03779877577263243 0 0)
(0.0390559677720503 0 0)
(0.04184320630290583 0 0)
(0.04600238578096576 0 0)
(0.05209172469063412 0 0)
(0.05900782567313005 0 0)
(0.06652660856383041 0 0)
(0.07475079556671249 0 0)
(0.08376435090377313 0 0)
(0.0935635874540722 0 0)
(0.1040630964324005 0 0)
(0.1151471650448321 0 0)
(0.1267149794060625 0 0)
(0.138666422135544 0 0)
(0.1508745651068533 0 0)
(0.163184290216728 0 0)
(0.1754245892751135 0 0)
(0.18742180396859 0 0)
(0.1989032299088931 0 0)
(0.2094178313188689 0 0)
(0.2185805672366613 0 0)
(0.2257991562748451 0 0)
(0.2298621855645863 0 0)
(0.2308949293218103 0 0)
(0.2302461001407841 0 0)
(0.2281492518549221 0 0)
(0.2246973618913988 0 0)
(0.2200140640896812 0 0)
(0.2132356000337275 0 0)
(0.2063430509081332 0 0)
(0.1986766789260444 0 0)
(0.1902666158756783 0 0)
(0.1810434883435115 0 0)
(0.1710140600821904 0 0)
(0.1602588029709375 0 0)
(0.1488625036609519 0 0)
(0.1369014631453669 0 0)
(0.1244820132666822 0 0)
(0.1117621596431682 0 0)
(0.09892877611886766 0 0)
(0.08618192776072385 0 0)
(0.07386589344308468 0 0)
(0.06250297675028059 0 0)
(0.05255337601098411 0 0)
(0.04485465405793611 0 0)
(0.04076281429510963 0 0)
(0.0398225177991673 0 0)
(0.0405579237707043 0 0)
(0.04280862507469863 0 0)
(0.04651112221675202 0 0)
(0.0517515502043553 0 0)
(0.05861927290700874 0 0)
(0.06585976504631441 0 0)
(0.07383655088974042 0 0)
(0.08257156267600313 0 0)
(0.09208635310340903 0 0)
(0.1023242594845085 0 0)
(0.1131743446815364 0 0)
(0.1245153247935049 0 0)
(0.1362293346157162 0 0)
(0.148200538950026 0 0)
(0.1603048003521375 0 0)
(0.1723895646104082 0 0)
(0.1842903765118999 0 0)
(0.1958019484062739 0 0)
(0.2065455930688036 0 0)
(0.2161010203883897 0 0)
(0.2240386903581926 0 0)
(0.2293461911815643 0 0)
(0.2313265751991631 0 0)
(0.2311840904612311 0 0)
(0.2296752537568499 0 0)
(0.2267631561883353 0 0)
(0.2225856318249346 0 0)
(0.2163845346651553 0 0)
(0.2096126052078546 0 0)
(0.202177426162543 0 0)
(0.1940278670895938 0 0)
(0.1850832794219567 0 0)
(0.1753339904808058 0 0)
(0.1648297385824058 0 0)
(0.1536552146511075 0 0)
(0.1419113107460306 0 0)
(0.1297125563600821 0 0)
(0.1171917242145722 0 0)
(0.1045148663251283 0 0)
(0.09186784618495447 0 0)
(0.07951326123166207 0 0)
(0.0679092809175481 0 0)
(0.0575291239934288 0 0)
(0.04899937438914663 0 0)
(0.04358351820978516 0 0)
(0.04172495806400511 0 0)
(0.0419563461050544 0 0)
(0.04365139592360907 0 0)
(0.04681017651261903 0 0)
(0.05128704290987087 0 0)
(0.05793267395409027 0 0)
(0.06487564165202983 0 0)
(0.07259095556938427 0 0)
(0.08104828374080485 0 0)
(0.09028073592816686 0 0)
(0.1002645831050978 0 0)
(0.1108908318625797 0 0)
(0.1220148660165096 0 0)
(0.1335128419492885 0 0)
(0.145282559256907 0 0)
(0.1572082413086585 0 0)
(0.1691404960962234 0 0)
(0.1809234761234923 0 0)
(0.192402490925662 0 0)
(0.2032812395347019 0 0)
(0.213130043050532 0 0)
(0.2216057620372645 0 0)
(0.2279482306540121 0 0)
(0.2310063372303309 0 0)
(0.2314905761606312 0 0)
(0.2305597221389215 0 0)
(0.2281631719563973 0 0)
(0.2244239140054096 0 0)
(0.2191060847843217 0 0)
(0.2123933052816354 0 0)
(0.2052367174003512 0 0)
(0.1973651557946204 0 0)
(0.1887074382116956 0 0)
(0.179215391031252 0 0)
(0.1689306064452323 0 0)
(0.1579662525102255 0 0)
(0.1464413037873302 0 0)
(0.1344529802583589 0 0)
(0.12211084000576 0 0)
(0.1095782770771936 0 0)
(0.09704294826635756 0 0)
(0.08470857371812182 0 0)
(0.07295489049465534 0 0)
(0.06227305821382965 0 0)
(0.05311735979107689 0 0)
(0.04653093760565037 0 0)
(0.04360321788905498 0 0)
(0.04326011100397963 0 0)
(0.04437675138757976 0 0)
(0.04699173270669153 0 0)
(0.05096817999957059 0 0)
(0.05687396882202631 0 0)
(0.06363670148872011 0 0)
(0.07106011859849114 0 0)
(0.07922644560520248 0 0)
(0.08818516252281319 0 0)
(0.09790816723749213 0 0)
(0.1082953534963907 0 0)
(0.1192139204798492 0 0)
(0.130539715539694 0 0)
(0.1421512282290744 0 0)
(0.1539164446286024 0 0)
(0.1656994554887089 0 0)
(0.1773631793429195 0 0)
(0.1887723856002047 0 0)
(0.199705093598571 0 0)
(0.2097718789115743 0 0)
(0.2186327864610773 0 0)
(0.225747844511413 0 0)
(0.2299646111127543 0 0)
(0.2312149325153562 0 0)
(0.2307695515201358 0 0)
(0.2289222851190701 0 0)
(0.2257160401329362 0 0)
(0.2212806606103793 0 0)
(0.2146840670141867 0 0)
(0.2078911026806787 0 0)
(0.200276753380068 0 0)
(0.1918823998380844 0 0)
(0.1826689285165861 0 0)
(0.172656046953524 0 0)
(0.1619304509799897 0 0)
(0.1505946336304668 0 0)
(0.138757247261188 0 0)
(0.1265540829864455 0 0)
(0.1141481724234356 0 0)
(0.101713441897219 0 0)
(0.0894267398731452 0 0)
(0.07758839166328613 0 0)
(0.06666940329755315 0 0)
(0.05706464518649181 0 0)
(0.04954832160723145 0 0)
(0.04546072815993104 0 0)
(0.04442812928665414 0 0)
(0.04502783646540656 0 0)
(0.04710606507338429 0 0)
(0.05059621613983364 0 0)
(0.05559030056115751 0 0)
(0.06221211321733829 0 0)
(0.06928287061864929 0 0)
(0.07714148210623754 0 0)
(0.08578290279336774 0 0)
(0.09520995131363759 0 0)
(0.1053605924958927 0 0)
(0.1161044202918509 0 0)
(0.1272824973967135 0 0)
(0.1387445590489571 0 0)
(0.1503645410427422 0 0)
(0.1620249586624891 0 0)
(0.1735871994031984 0 0)
(0.1849126534699843 0 0)
(0.1958453969507454 0 0)
(0.2060666496664957 0 0)
(0.2152070820814257 0 0)
(0.2228987130561463 0 0)
(0.2282064659905448 0 0)
(0.2303426772119095 0 0)
(0.230380060425199 0 0)
(0.2290964432264264 0 0)
(0.2264025664536756 0 0)
(0.2224523670056738 0 0)
(0.2165616366578552 0 0)
(0.2099449964508937 0 0)
(0.20265336116285 0 0)
(0.1946213711799162 0 0)
(0.1857769751426671 0 0)
(0.1761101744361756 0 0)
(0.1656762692520799 0 0)
(0.1545874496973692 0 0)
(0.1429794255932746 0 0)
(0.1309860850004602 0 0)
(0.1187456183400723 0 0)
(0.1064310749120945 0 0)
(0.09422809301157622 0 0)
(0.08236732966034088 0 0)
(0.07126672683469656 0 0)
(0.06134614498761409 0 0)
(0.05314459960726673 0 0)
(0.04788756284107003 0 0)
(0.04602441401670516 0 0)
(0.04616913391017717 0 0)
(0.04774649856759941 0 0)
(0.0507244814368651 0 0)
(0.0549100140210815 0 0)
(0.06125412142699925 0 0)
(0.06789866622228502 0 0)
(0.07539715382156538 0 0)
(0.08369483048607614 0 0)
(0.09280549676408342 0 0)
(0.1026956723177927 0 0)
(0.1132390810202929 0 0)
(0.1242628582641125 0 0)
(0.1356115185965752 0 0)
(0.1471497161172062 0 0)
(0.1587333838983963 0 0)
(0.1702088746021513 0 0)
(0.1814457287835947 0 0)
(0.1923334364189081 0 0)
(0.2026294286455252 0 0)
(0.2119697625715203 0 0)
(0.2200799208371367 0 0)
(0.2262518185117947 0 0)
(0.2293973271554292 0 0)
(0.2300516750923492 0 0)
(0.2293067996832175 0 0)
(0.2271218022010985 0 0)
(0.2236091602516927 0 0)
(0.2186469382109775 0 0)
(0.2121163525000046 0 0)
(0.2051878093599856 0 0)
(0.1974962427019652 0 0)
(0.1889979059442553 0 0)
(0.1796418814737997 0 0)
(0.1694649318152522 0 0)
(0.1585830426251249 0 0)
(0.1471286205211544 0 0)
(0.1352309994655744 0 0)
(0.1230482593738197 0 0)
(0.1107808834161269 0 0)
(0.09862283321015074 0 0)
(0.08675429769653201 0 0)
(0.07552016078612124 0 0)
(0.06535869335965223 0 0)
(0.05662641684639472 0 0)
(0.0503173707003578 0 0)
(0.04750566842737754 0 0)
(0.04715828124532007 0 0)
(0.04821102262709673 0 0)
(0.05071260832163899 0 0)
(0.05445666111175217 0 0)
(0.06004921588862815 0 0)
(0.0664306425289958 0 0)
(0.07353087871245602 0 0)
(0.08141294921110698 0 0)
(0.09013547490286693 0 0)
(0.09968644900350998 0 0)
(0.1099807449454329 0 0)
(0.120865117561778 0 0)
(0.132154551239347 0 0)
(0.1436568219314895 0 0)
(0.1551952994346247 0 0)
(0.1666250246445657 0 0)
(0.1778155029163602 0 0)
(0.1886510961011414 0 0)
(0.1989614198237287 0 0)
(0.2084283066980417 0 0)
(0.2167894680026223 0 0)
(0.2235904013499037 0 0)
(0.2277708194421491 0 0)
(0.2291705555979738 0 0)
(0.2289165795595091 0 0)
(0.2272912009968647 0 0)
(0.2243073980943792 0 0)
(0.2201220898887869 0 0)
(0.2137942716949337 0 0)
(0.207149490268491 0 0)
(0.199726347439981 0 0)
(0.1915666479574506 0 0)
(0.1826433058173529 0 0)
(0.1729362047337078 0 0)
(0.1624650094810495 0 0)
(0.1512976889641875 0 0)
(0.1395628103582321 0 0)
(0.1274513349543102 0 0)
(0.1151898086640335 0 0)
(0.1030186948671544 0 0)
(0.09115547406285236 0 0)
(0.07986965888068424 0 0)
(0.06955346672311417 0 0)
(0.06048398740731234 0 0)
(0.05336571850278871 0 0)
(0.04948516010345621 0 0)
(0.04846589281092346 0 0)
(0.04901819048077661 0 0)
(0.05106390931392055 0 0)
(0.05445259565425641 0 0)
(0.05913886833512876 0 0)
(0.0655248148285823 0 0)
(0.07222515632087306 0 0)
(0.07968386153016155 0 0)
(0.08790095485055267 0 0)
(0.09694797323696124 0 0)
(0.1068425481393802 0 0)
(0.1174904091875821 0 0)
(0.1287098022686392 0 0)
(0.1402682742686258 0 0)
(0.1519340358606046 0 0)
(0.1633836813396514 0 0)
(0.1747747519484831 0 0)
(0.1844283586887097 0 0)
(0.2001349649100488 0 0)
)
;

boundaryField
{
    inlet
    {
        type            zeroGradient;
    }
    outlet
    {
        type            pressureInletOutletVelocity;
        value           uniform (0.2001349649100488 0 0);
    }
    frontAndBack
    {
        type            empty;
    }
}


// ************************************************************************* //
