/*--------------------------------*- C++ -*----------------------------------*\
| =========                 |                                                 |
| \\      /  F ield         | OpenFOAM: The Open Source CFD Toolbox           |
|  \\    /   O peration     | Version:  v2012                                 |
|   \\  /    A nd           | Website:  www.openfoam.com                      |
|    \\/     M anipulation  |                                                 |
\*---------------------------------------------------------------------------*/
FoamFile
{
    version     2.0;
    format      ascii;
    class       volVectorField;
    location    "0.018";
    object      UMean;
}
// * * * * * * * * * * * * * * * * * * * * * * * * * * * * * * * * * * * * * //

dimensions      [0 1 -1 0 0 0 0];


internalField   nonuniform List<vector> 
1000
(
(0.005059507889832189 0 0)
(0.005041914105726331 0 0)
(0.005095249770301329 0 0)
(0.00511822120771174 0 0)
(0.005172812438438934 0 0)
(0.005213919081512115 0 0)
(0.005268820696783816 0 0)
(0.00532577714712669 0 0)
(0.005391887716875922 0 0)
(0.005460918472974131 0 0)
(0.005532833019958606 0 0)
(0.005604173012671476 0 0)
(0.005671791728985217 0 0)
(0.00574184545574043 0 0)
(0.005803318156877626 0 0)
(0.005865436462349427 0 0)
(0.005924361308595839 0 0)
(0.005976767833055865 0 0)
(0.006022111389016097 0 0)
(0.006059685185849569 0 0)
(0.006088625983549065 0 0)
(0.006109624848001152 0 0)
(0.006121215859017665 0 0)
(0.00612531373019516 0 0)
(0.00611718659873356 0 0)
(0.006104952993471632 0 0)
(0.006085167092476375 0 0)
(0.006054232303718834 0 0)
(0.006016933937446664 0 0)
(0.005971566482966242 0 0)
(0.005920746753889661 0 0)
(0.005865356125301326 0 0)
(0.005806459232046967 0 0)
(0.005744302834401611 0 0)
(0.005680450276384726 0 0)
(0.005612538113195456 0 0)
(0.005548812538796915 0 0)
(0.005479852591334978 0 0)
(0.005419440159867201 0 0)
(0.00536435773572044 0 0)
(0.005314813542325507 0 0)
(0.005271432502794126 0 0)
(0.005235284039019505 0 0)
(0.005207070816978241 0 0)
(0.005187868988267881 0 0)
(0.005177873601457174 0 0)
(0.00517826151391839 0 0)
(0.005186239527969779 0 0)
(0.005205628117167582 0 0)
(0.005238418446051828 0 0)
(0.005276906717828284 0 0)
(0.005325125600931951 0 0)
(0.005380542002431412 0 0)
(0.005442434424162392 0 0)
(0.005509351221063263 0 0)
(0.005580335025307223 0 0)
(0.005654136281293418 0 0)
(0.005729914240908679 0 0)
(0.005802552675888815 0 0)
(0.005876093767280197 0 0)
(0.005942419268431441 0 0)
(0.00601001019327013 0 0)
(0.006074963860483972 0 0)
(0.006135250539755732 0 0)
(0.006188494130174158 0 0)
(0.006233994265501503 0 0)
(0.006271343538246487 0 0)
(0.006299810892653784 0 0)
(0.006319973390635574 0 0)
(0.006331010577816879 0 0)
(0.006332798190992932 0 0)
(0.006324654017881081 0 0)
(0.006313833516889306 0 0)
(0.006290906132167187 0 0)
(0.00626055293263163 0 0)
(0.006222312875314565 0 0)
(0.00617807345439435 0 0)
(0.006129173714861612 0 0)
(0.006076399520794513 0 0)
(0.00602060375034 0 0)
(0.005962841512927542 0 0)
(0.005901887675445896 0 0)
(0.005841037925886025 0 0)
(0.005777969059735495 0 0)
(0.005718790668803631 0 0)
(0.005665691742759841 0 0)
(0.005618739364219325 0 0)
(0.005577037072549152 0 0)
(0.005542086654315157 0 0)
(0.005514862982310254 0 0)
(0.005496067017941468 0 0)
(0.005487119634437976 0 0)
(0.005487102631225366 0 0)
(0.005497865965727541 0 0)
(0.005515009483533117 0 0)
(0.005549464402517888 0 0)
(0.005590422030012574 0 0)
(0.005639874159651745 0 0)
(0.005697372808654606 0 0)
(0.005761369706447415 0 0)
(0.005830677116164853 0 0)
(0.005904100588158119 0 0)
(0.005981058188796017 0 0)
(0.00606010916875601 0 0)
(0.006138881195099428 0 0)
(0.006214926007257116 0 0)
(0.006288736934226915 0 0)
(0.00635826668994223 0 0)
(0.006428632095400139 0 0)
(0.006495947825081764 0 0)
(0.006556823256042948 0 0)
(0.006610401505548255 0 0)
(0.006655790780298008 0 0)
(0.006692667112863715 0 0)
(0.006721047861490289 0 0)
(0.006739536574931287 0 0)
(0.006750589650051088 0 0)
(0.0067478394805549 0 0)
(0.006743977774257008 0 0)
(0.006730188194947992 0 0)
(0.00670670209380187 0 0)
(0.006675916974586568 0 0)
(0.006638314181488289 0 0)
(0.006595834841591378 0 0)
(0.006549376578117556 0 0)
(0.006499763823062926 0 0)
(0.006447706331242199 0 0)
(0.006393997545883089 0 0)
(0.00633733332021619 0 0)
(0.006281405593652578 0 0)
(0.00622264038104382 0 0)
(0.006172213780303647 0 0)
(0.006127999042924964 0 0)
(0.006088768174782419 0 0)
(0.006055690779641952 0 0)
(0.006029479263089867 0 0)
(0.006011908610586342 0 0)
(0.006003345671406084 0 0)
(0.006004030640880301 0 0)
(0.006015870507834752 0 0)
(0.006033583266943671 0 0)
(0.006066307225475059 0 0)
(0.006110817491139084 0 0)
(0.006161789433889036 0 0)
(0.006221468820991644 0 0)
(0.006287625349139097 0 0)
(0.006359335186870292 0 0)
(0.006435576831043995 0 0)
(0.006515538800237973 0 0)
(0.006597883483710157 0 0)
(0.00668194068698636 0 0)
(0.006762653981497174 0 0)
(0.006843152173884228 0 0)
(0.006914893942749831 0 0)
(0.006989865548735966 0 0)
(0.007063203746928351 0 0)
(0.007131497002233436 0 0)
(0.007192930939200301 0 0)
(0.007246357118138332 0 0)
(0.007291751248958176 0 0)
(0.007328178706946228 0 0)
(0.007355558602364362 0 0)
(0.007374134688239008 0 0)
(0.007381137748161593 0 0)
(0.007380802432643375 0 0)
(0.00737641451924066 0 0)
(0.007360839687287706 0 0)
(0.007337437199171448 0 0)
(0.007306754545290557 0 0)
(0.007270755188721243 0 0)
(0.007230814659474043 0 0)
(0.007187341213691605 0 0)
(0.007141328025103655 0 0)
(0.007094087701668278 0 0)
(0.007043631422372285 0 0)
(0.006994135539050706 0 0)
(0.006938255192281235 0 0)
(0.006889950727025439 0 0)
(0.006848553427806399 0 0)
(0.006812493931940848 0 0)
(0.006781916349128577 0 0)
(0.006757614949187949 0 0)
(0.006741371222470294 0 0)
(0.006733608343374904 0 0)
(0.006735687189484275 0 0)
(0.006747411627620931 0 0)
(0.006768153763315196 0 0)
(0.006798203942312814 0 0)
(0.006844653155297156 0 0)
(0.006897741388125943 0 0)
(0.006959103651662591 0 0)
(0.007027432419593174 0 0)
(0.007101526207309842 0 0)
(0.007180368748549095 0 0)
(0.00726314814984935 0 0)
(0.007348787815063887 0 0)
(0.007436871834874652 0 0)
(0.007523420957111613 0 0)
(0.007608756355288952 0 0)
(0.007686222515594481 0 0)
(0.007763202705088342 0 0)
(0.007841891922840235 0 0)
(0.007916895728717104 0 0)
(0.007985554782696823 0 0)
(0.008046842630153369 0 0)
(0.00809998131829931 0 0)
(0.008144622621099367 0 0)
(0.008180587056393398 0 0)
(0.008206711659864155 0 0)
(0.00822353463712301 0 0)
(0.008228605722471008 0 0)
(0.008231435944397618 0 0)
(0.008224141130339899 0 0)
(0.008207727065212838 0 0)
(0.008184046973284724 0 0)
(0.008154419033629224 0 0)
(0.008120621771027493 0 0)
(0.008083219640159338 0 0)
(0.008043241925303023 0 0)
(0.00800159127409511 0 0)
(0.007958349817459723 0 0)
(0.007913630674854377 0 0)
(0.007865584094083285 0 0)
(0.007816517637903262 0 0)
(0.007778539484689373 0 0)
(0.007745711716491317 0 0)
(0.007718094749626583 0 0)
(0.007696466133303792 0 0)
(0.007681766566886679 0 0)
(0.007675646531269143 0 0)
(0.007679117281119244 0 0)
(0.007691390037405086 0 0)
(0.007714781391966526 0 0)
(0.007744337414412001 0 0)
(0.007790745595690849 0 0)
(0.007846692182888292 0 0)
(0.007909958944526115 0 0)
(0.007981042280121763 0 0)
(0.008057955006024261 0 0)
(0.008139739054454314 0 0)
(0.008225858664736369 0 0)
(0.008315209760309627 0 0)
(0.008407093904465854 0 0)
(0.008499840779804023 0 0)
(0.008590288275873834 0 0)
(0.008676970219184182 0 0)
(0.008754024912024084 0 0)
(0.008838404113765406 0 0)
(0.008919898731165068 0 0)
(0.008996086312918299 0 0)
(0.009065531325034064 0 0)
(0.009126766143714144 0 0)
(0.009180094234030991 0 0)
(0.009224693335448985 0 0)
(0.009259504740921722 0 0)
(0.009285959352736009 0 0)
(0.009298693276874581 0 0)
(0.009307390949828411 0 0)
(0.009309541767847707 0 0)
(0.00930112313561597 0 0)
(0.00928523241062751 0 0)
(0.00926255317228065 0 0)
(0.009235358532387702 0 0)
(0.009204579466612735 0 0)
(0.009171013797580365 0 0)
(0.009135296121127959 0 0)
(0.009099022523272847 0 0)
(0.009060795866309796 0 0)
(0.009022031014554503 0 0)
(0.00897300274008061 0 0)
(0.008938398803949444 0 0)
(0.008909002621828451 0 0)
(0.008885227087056217 0 0)
(0.008866844000414773 0 0)
(0.008854739169889587 0 0)
(0.00885070529902625 0 0)
(0.00885556623994796 0 0)
(0.008869560573670117 0 0)
(0.008894522179884446 0 0)
(0.008925424015608639 0 0)
(0.008969312022203583 0 0)
(0.009028520681504873 0 0)
(0.009094331288812273 0 0)
(0.009167872916832635 0 0)
(0.00924757569362333 0 0)
(0.009332239438865594 0 0)
(0.009421501528921912 0 0)
(0.009514320535668907 0 0)
(0.009609636123784543 0 0)
(0.009707317146827857 0 0)
(0.009803520133124681 0 0)
(0.009898927305358062 0 0)
(0.009978336518720538 0 0)
(0.01006624045397298 0 0)
(0.01015330388812634 0 0)
(0.01023654659393958 0 0)
(0.01031355775375837 0 0)
(0.01038279561051602 0 0)
(0.0104442049309898 0 0)
(0.01049684282164293 0 0)
(0.01054079582076115 0 0)
(0.01057526543758304 0 0)
(0.01059820226090824 0 0)
(0.01061012379172955 0 0)
(0.01062150419447882 0 0)
(0.01062204664007421 0 0)
(0.01061345581380596 0 0)
(0.0105977784746328 0 0)
(0.01057697344807707 0 0)
(0.01055237274349991 0 0)
(0.01052500161856167 0 0)
(0.01049513647196693 0 0)
(0.01046493562906208 0 0)
(0.0104332121404017 0 0)
(0.01040265322432152 0 0)
(0.01035960958722936 0 0)
(0.01032504038459742 0 0)
(0.01029932025324756 0 0)
(0.01027917705622709 0 0)
(0.01026432295408704 0 0)
(0.01025554621478049 0 0)
(0.01025371072629238 0 0)
(0.01026039569273803 0 0)
(0.01027680249685229 0 0)
(0.01030234055106447 0 0)
(0.01033740434378375 0 0)
(0.01037833422861277 0 0)
(0.01043902173036542 0 0)
(0.01050799050745128 0 0)
(0.01058337810240803 0 0)
(0.01066593952885881 0 0)
(0.01075357394261495 0 0)
(0.0108457744954361 0 0)
(0.01094188425062689 0 0)
(0.01104082850336713 0 0)
(0.01114246138049478 0 0)
(0.01124412353585177 0 0)
(0.01134597089298963 0 0)
(0.01143582517792596 0 0)
(0.01152180310066996 0 0)
(0.01161498844100426 0 0)
(0.01170407973467946 0 0)
(0.01178841730820473 0 0)
(0.01186561431705834 0 0)
(0.01193470907055381 0 0)
(0.01199552536394007 0 0)
(0.01204820395569286 0 0)
(0.01209050041328136 0 0)
(0.01212405082296997 0 0)
(0.01214248217313521 0 0)
(0.01216012835080656 0 0)
(0.01216933125706718 0 0)
(0.01216787619383473 0 0)
(0.01215932917585095 0 0)
(0.01214484239450556 0 0)
(0.01212625316482066 0 0)
(0.01210481134145833 0 0)
(0.0120809158252738 0 0)
(0.01205596012992997 0 0)
(0.01203067458639594 0 0)
(0.0120059472840498 0 0)
(0.011976627348282 0 0)
(0.0119365659927058 0 0)
(0.01191639946812418 0 0)
(0.01189900698546626 0 0)
(0.01188794154854748 0 0)
(0.01188259419860146 0 0)
(0.01188351813161686 0 0)
(0.01189238361456243 0 0)
(0.01191077707598305 0 0)
(0.01193754939898327 0 0)
(0.0119757237821998 0 0)
(0.01201793315939946 0 0)
(0.01207684248122743 0 0)
(0.0121482604778804 0 0)
(0.01222551980663094 0 0)
(0.01231076381305152 0 0)
(0.0124013128652765 0 0)
(0.01249630421182014 0 0)
(0.01259553172978937 0 0)
(0.01269805908708635 0 0)
(0.01280295246219629 0 0)
(0.01290971521309388 0 0)
(0.01301616665797892 0 0)
(0.01312051548260734 0 0)
(0.0132018495949116 0 0)
(0.01330153532095108 0 0)
(0.01339573235196373 0 0)
(0.01348686437280217 0 0)
(0.01357155073709823 0 0)
(0.01364853522282155 0 0)
(0.0137171816053569 0 0)
(0.01377782162162159 0 0)
(0.01382833618610931 0 0)
(0.01387110612640584 0 0)
(0.01389868790304096 0 0)
(0.01392015090742322 0 0)
(0.01393798466244833 0 0)
(0.01394437509825238 0 0)
(0.01394297339412464 0 0)
(0.01393492477214984 0 0)
(0.01392220813393849 0 0)
(0.01390627609656221 0 0)
(0.01388817350473903 0 0)
(0.01386829454495309 0 0)
(0.01384851456269917 0 0)
(0.01382925800660505 0 0)
(0.01381268791693625 0 0)
(0.01377123119928609 0 0)
(0.01375370951061726 0 0)
(0.01373972677907829 0 0)
(0.01373199269291366 0 0)
(0.01373006338406269 0 0)
(0.01373411167804371 0 0)
(0.01374522353635878 0 0)
(0.01376508784352993 0 0)
(0.01379382098173956 0 0)
(0.01383335567390498 0 0)
(0.01387871958564616 0 0)
(0.01393360482729908 0 0)
(0.01400711964412592 0 0)
(0.01408728090595708 0 0)
(0.01417469139863079 0 0)
(0.01426793700153869 0 0)
(0.01436576029159982 0 0)
(0.01446755055372831 0 0)
(0.01457335535390834 0 0)
(0.01468134661325051 0 0)
(0.01479203225684247 0 0)
(0.01490280039788644 0 0)
(0.01501719949847337 0 0)
(0.01510325125655038 0 0)
(0.01520316698187782 0 0)
(0.01530330653454587 0 0)
(0.01540005952586595 0 0)
(0.01549167348107868 0 0)
(0.01557630179213059 0 0)
(0.01565245683700412 0 0)
(0.0157204177843546 0 0)
(0.01577960172362057 0 0)
(0.0158294172613967 0 0)
(0.0158681974360982 0 0)
(0.01589146088723672 0 0)
(0.01591721423032061 0 0)
(0.01593312427768337 0 0)
(0.01593836053488426 0 0)
(0.0159366958536849 0 0)
(0.01592973797400012 0 0)
(0.01591902065814147 0 0)
(0.01590626372140589 0 0)
(0.01589148382042447 0 0)
(0.01587652773681622 0 0)
(0.01586209686646166 0 0)
(0.01585217162905173 0 0)
(0.01582338391692375 0 0)
(0.01580052359825094 0 0)
(0.01579132200995607 0 0)
(0.01578596074352514 0 0)
(0.01578718253067366 0 0)
(0.01579430215819887 0 0)
(0.01580792012307753 0 0)
(0.01582914501327838 0 0)
(0.0158600453008779 0 0)
(0.01589927935139672 0 0)
(0.01594937237022646 0 0)
(0.01599995724980381 0 0)
(0.01607363444029165 0 0)
(0.01615706344845852 0 0)
(0.01624523307871894 0 0)
(0.01634060268817052 0 0)
(0.01644076621944434 0 0)
(0.01654471554775282 0 0)
(0.01665280711055854 0 0)
(0.01676364744123805 0 0)
(0.01687716838408826 0 0)
(0.01699155504599931 0 0)
(0.01710876479052265 0 0)
(0.01721343401073274 0 0)
(0.01730444067439939 0 0)
(0.01741144076187082 0 0)
(0.01751201567492754 0 0)
(0.01760949869913188 0 0)
(0.01770070628952415 0 0)
(0.01778412624826968 0 0)
(0.01785885377498743 0 0)
(0.01792581706459578 0 0)
(0.01798204486314227 0 0)
(0.01803093233308518 0 0)
(0.01806076669856545 0 0)
(0.01809120221907291 0 0)
(0.01811451015103634 0 0)
(0.01812517432732758 0 0)
(0.01812875426871499 0 0)
(0.01812572068162963 0 0)
(0.01811804558957224 0 0)
(0.01810743529064034 0 0)
(0.01809497547391242 0 0)
(0.01808134593663167 0 0)
(0.01806782697481164 0 0)
(0.01805596016951547 0 0)
(0.01804380320214443 0 0)
(0.01800469430426479 0 0)
(0.01799666499038074 0 0)
(0.01798667112170858 0 0)
(0.01798378601650051 0 0)
(0.01798592192061542 0 0)
(0.01799369159554814 0 0)
(0.01800710172776114 0 0)
(0.01802893833689195 0 0)
(0.01805714118114438 0 0)
(0.01809672480709514 0 0)
(0.01813656927976793 0 0)
(0.01819218800361183 0 0)
(0.01826083307119331 0 0)
(0.01833433859447833 0 0)
(0.01841577307889857 0 0)
(0.01850346767451239 0 0)
(0.01859599245032056 0 0)
(0.01869292020783966 0 0)
(0.01879434548576157 0 0)
(0.01889916571514726 0 0)
(0.01900718878463697 0 0)
(0.01911729263959706 0 0)
(0.0192313355915231 0 0)
(0.01930912073792605 0 0)
(0.0194153988271524 0 0)
(0.01951653731368088 0 0)
(0.01961697701809785 0 0)
(0.01971402389062193 0 0)
(0.01980614590477427 0 0)
(0.01989176391484343 0 0)
(0.01997129254180908 0 0)
(0.02004289674805692 0 0)
(0.0201086513568613 0 0)
(0.02016059083797456 0 0)
(0.02020584355557768 0 0)
(0.02024991646277171 0 0)
(0.02028324606804129 0 0)
(0.02030782526684878 0 0)
(0.02032479211833512 0 0)
(0.02033528373187719 0 0)
(0.02034091368473765 0 0)
(0.02034423400418066 0 0)
(0.02034518839326485 0 0)
(0.02034532343599135 0 0)
(0.02034490964432853 0 0)
(0.02035035234122305 0 0)
(0.02032201363529347 0 0)
(0.02031715824303617 0 0)
(0.02031666933164063 0 0)
(0.02031946372684288 0 0)
(0.02032686197717878 0 0)
(0.02033880293312788 0 0)
(0.02035515720802275 0 0)
(0.0203773740889026 0 0)
(0.02040619947093806 0 0)
(0.02044261330063483 0 0)
(0.020484749038187 0 0)
(0.02052999234174523 0 0)
(0.02059480952064528 0 0)
(0.02066735480861914 0 0)
(0.02074472812699056 0 0)
(0.02082964681290355 0 0)
(0.02092036468507548 0 0)
(0.02101580993051035 0 0)
(0.02111615953140833 0 0)
(0.02122069871666288 0 0)
(0.02132883107383078 0 0)
(0.02143976991326983 0 0)
(0.02155577989430744 0 0)
(0.02164778031858617 0 0)
(0.02174352564698042 0 0)
(0.02185024978008848 0 0)
(0.02195238965513309 0 0)
(0.0220530188746395 0 0)
(0.02214949606033695 0 0)
(0.0222402798830622 0 0)
(0.0223242244171038 0 0)
(0.02240187648545158 0 0)
(0.02247066783621556 0 0)
(0.02253318504838652 0 0)
(0.02257588477365345 0 0)
(0.022624882452907 0 0)
(0.02266712102419541 0 0)
(0.02269554576742258 0 0)
(0.02271708789608938 0 0)
(0.0227314499973617 0 0)
(0.02274025692785154 0 0)
(0.02274581849762489 0 0)
(0.02274946273633631 0 0)
(0.02275197719240994 0 0)
(0.02275372855725006 0 0)
(0.02275817893047201 0 0)
(0.02275078190136777 0 0)
(0.0227307736305642 0 0)
(0.02273505084368494 0 0)
(0.02273704922628135 0 0)
(0.02274479772817559 0 0)
(0.0227570148000265 0 0)
(0.02277397666013773 0 0)
(0.02279569958365309 0 0)
(0.02282443132213672 0 0)
(0.02285822364585319 0 0)
(0.02290254559423027 0 0)
(0.02294334036281555 0 0)
(0.02300437548289289 0 0)
(0.02307710102257452 0 0)
(0.02315220465604315 0 0)
(0.02323564462221123 0 0)
(0.02332550974975446 0 0)
(0.02342031400060896 0 0)
(0.02351962578459674 0 0)
(0.02362377239867715 0 0)
(0.02373196788016371 0 0)
(0.02384318118791741 0 0)
(0.02395641369581921 0 0)
(0.02406946981735981 0 0)
(0.02414922169021636 0 0)
(0.0242610237211119 0 0)
(0.02436335874241477 0 0)
(0.02446575253595385 0 0)
(0.02456467520093327 0 0)
(0.02465897878968592 0 0)
(0.02474674676248736 0 0)
(0.02482828202736056 0 0)
(0.02490061640985466 0 0)
(0.02496836456003651 0 0)
(0.02501810042180714 0 0)
(0.0250678853341025 0 0)
(0.02511337285316659 0 0)
(0.0251464928929526 0 0)
(0.02517160037848912 0 0)
(0.02518974452231868 0 0)
(0.02520147611476219 0 0)
(0.02520892906971597 0 0)
(0.02521428315542698 0 0)
(0.02521869642632774 0 0)
(0.02522235571699307 0 0)
(0.02522518711201421 0 0)
(0.02523512105842053 0 0)
(0.02520305566551931 0 0)
(0.02520905372331069 0 0)
(0.0252108865248026 0 0)
(0.02521793567090951 0 0)
(0.02522935029031218 0 0)
(0.02524597720220153 0 0)
(0.0252673535889425 0 0)
(0.02529460883336467 0 0)
(0.02532732856727029 0 0)
(0.02536910091784522 0 0)
(0.02541212443286093 0 0)
(0.0254662403839194 0 0)
(0.02553502565497518 0 0)
(0.02561015039045208 0 0)
(0.02569105581707975 0 0)
(0.02577956888150566 0 0)
(0.02587333861263065 0 0)
(0.02597143271970632 0 0)
(0.02607411848750229 0 0)
(0.02618183298240422 0 0)
(0.02629288565246923 0 0)
(0.02640556857379562 0 0)
(0.02652554080008405 0 0)
(0.02660793259900526 0 0)
(0.02671327511217434 0 0)
(0.02681902093833508 0 0)
(0.02692207863321011 0 0)
(0.02702240571753214 0 0)
(0.02711928923799711 0 0)
(0.02721044396401175 0 0)
(0.02729504066651816 0 0)
(0.02737189637586667 0 0)
(0.02744122108079108 0 0)
(0.02750016203900863 0 0)
(0.02754672633390006 0 0)
(0.02759517799774091 0 0)
(0.02763584166269568 0 0)
(0.02766393044314473 0 0)
(0.02768556040809669 0 0)
(0.02770029534555846 0 0)
(0.02770986916308699 0 0)
(0.02771616879155837 0 0)
(0.02772191045108159 0 0)
(0.02772671040809579 0 0)
(0.02773086893475089 0 0)
(0.02773909983665628 0 0)
(0.02772551990208372 0 0)
(0.02771424902682506 0 0)
(0.02772065244484573 0 0)
(0.02772576129208794 0 0)
(0.02773583702903019 0 0)
(0.02775119518550411 0 0)
(0.02777186374495983 0 0)
(0.02779792243652371 0 0)
(0.02782998435688189 0 0)
(0.02786726696462129 0 0)
(0.02791440366980476 0 0)
(0.02795658820671653 0 0)
(0.02802270444128398 0 0)
(0.02810067887856525 0 0)
(0.0281784298081473 0 0)
(0.02826502185368032 0 0)
(0.02835765427785849 0 0)
(0.02845466978908228 0 0)
(0.0285557494248245 0 0)
(0.02866203518032795 0 0)
(0.02877265422835416 0 0)
(0.02888575443794975 0 0)
(0.02900086145669325 0 0)
(0.0291082985934329 0 0)
(0.02919215004394853 0 0)
(0.02930484260528681 0 0)
(0.02940735865167581 0 0)
(0.0295089644594461 0 0)
(0.02960720306450446 0 0)
(0.02970122210873534 0 0)
(0.02978933847720659 0 0)
(0.02987027989507948 0 0)
(0.02994145869626312 0 0)
(0.03000836605936528 0 0)
(0.03005374329898887 0 0)
(0.03010466826743907 0 0)
(0.03015183402259614 0 0)
(0.03018284568643611 0 0)
(0.03020744564455291 0 0)
(0.03022531000819596 0 0)
(0.03023730396500265 0 0)
(0.03024501706550122 0 0)
(0.03025101860701241 0 0)
(0.03025731835422439 0 0)
(0.03026289201155286 0 0)
(0.03026710559770227 0 0)
(0.03027698485368082 0 0)
(0.03024409182753328 0 0)
(0.03025647661666852 0 0)
(0.03025949960689075 0 0)
(0.03026882898213709 0 0)
(0.03028200859989518 0 0)
(0.0303014971136404 0 0)
(0.03032674499311707 0 0)
(0.03035764530368856 0 0)
(0.03039303169803874 0 0)
(0.03043844154390363 0 0)
(0.03048106418390351 0 0)
(0.03054127529508267 0 0)
(0.03061483630082454 0 0)
(0.03069153240265752 0 0)
(0.03077514079485637 0 0)
(0.03086607018064247 0 0)
(0.03096206861373122 0 0)
(0.03106186540368158 0 0)
(0.03116574362843012 0 0)
(0.03127580709729103 0 0)
(0.0313889659737208 0 0)
(0.03150163900064367 0 0)
(0.03162481998357022 0 0)
(0.03169627113948698 0 0)
(0.03181094461653432 0 0)
(0.03191476196320722 0 0)
(0.03201771138891078 0 0)
(0.03211651409862711 0 0)
(0.03221238340235817 0 0)
(0.03230352006883964 0 0)
(0.03238818868211681 0 0)
(0.03246352610645774 0 0)
(0.03253228266958343 0 0)
(0.03258639240503442 0 0)
(0.03263597554347056 0 0)
(0.03268351122684232 0 0)
(0.03272159433156666 0 0)
(0.03274845285192883 0 0)
(0.03276916210409442 0 0)
(0.03278390422819334 0 0)
(0.03279355674093061 0 0)
(0.03279970760810138 0 0)
(0.03280679521539673 0 0)
(0.03281339517847127 0 0)
(0.03281823975458803 0 0)
(0.03283042011304678 0 0)
(0.03280708301020065 0 0)
(0.03280674462501067 0 0)
(0.03281341318967117 0 0)
(0.03282113126166886 0 0)
(0.03283248028481804 0 0)
(0.03284953713909813 0 0)
(0.03287327796301863 0 0)
(0.03290335801462842 0 0)
(0.03293801758134658 0 0)
(0.0329787035123237 0 0)
(0.03302599049593345 0 0)
(0.03307370935625785 0 0)
(0.03314300838622602 0 0)
(0.03322310219323622 0 0)
(0.03330287049369242 0 0)
(0.03339170867124104 0 0)
(0.03348626186352157 0 0)
(0.03358518528922692 0 0)
(0.03368715681085107 0 0)
(0.03379507424235872 0 0)
(0.03390746356937623 0 0)
(0.03402146189170379 0 0)
(0.03413782660167917 0 0)
(0.0342377371404246 0 0)
(0.0343267221510488 0 0)
(0.03443907881475909 0 0)
(0.03454143920656149 0 0)
(0.03464152338993524 0 0)
(0.03473770013202805 0 0)
(0.03483070954600095 0 0)
(0.03491895473781775 0 0)
(0.03499897980520977 0 0)
(0.03506856617037429 0 0)
(0.03513371553276955 0 0)
(0.03517389914619591 0 0)
(0.0352248239917483 0 0)
(0.03527387145430486 0 0)
(0.03530202227070578 0 0)
(0.0353257275553187 0 0)
(0.03534262327375869 0 0)
(0.03535481000639641 0 0)
(0.03536226546597748 0 0)
(0.03536867142961179 0 0)
(0.03537604411106114 0 0)
(0.03538306075400166 0 0)
(0.03538821373895695 0 0)
(0.0353963084620888 0 0)
(0.03536352605023123 0 0)
(0.03538062795132215 0 0)
(0.03538551014488849 0 0)
(0.03539626371566889 0 0)
(0.03541037388436705 0 0)
(0.03543128166606583 0 0)
(0.03546024244652681 0 0)
(0.03549444791106479 0 0)
(0.03553229020365289 0 0)
(0.03558042972544907 0 0)
(0.03562151354582726 0 0)
(0.03568624331733229 0 0)
(0.03576557619252774 0 0)
(0.03584274737485737 0 0)
(0.03592858575390995 0 0)
(0.03602086772966902 0 0)
(0.03611870401580172 0 0)
(0.036219740897207 0 0)
(0.03632471985186621 0 0)
(0.03643589512910938 0 0)
(0.03655079000262784 0 0)
(0.03666198129699582 0 0)
(0.03678865547910384 0 0)
(0.03684714524525413 0 0)
(0.03697107195509498 0 0)
(0.03707299444282527 0 0)
(0.03717534521334215 0 0)
(0.03727196487854793 0 0)
(0.03736503773345738 0 0)
(0.03745565623383917 0 0)
(0.03754003520292613 0 0)
(0.03761405997726529 0 0)
(0.03768121657944924 0 0)
(0.03773024757995078 0 0)
(0.03778014638227683 0 0)
(0.03782756818190509 0 0)
(0.03786306603263406 0 0)
(0.03788812150369332 0 0)
(0.03790735093685615 0 0)
(0.03792134449122933 0 0)
(0.03793120880836182 0 0)
(0.03793718910287976 0 0)
(0.03794473879748422 0 0)
(0.03795252078541077 0 0)
(0.03795703162415305 0 0)
(0.0379726688594658 0 0)
(0.03793840601210037 0 0)
(0.03794875585013611 0 0)
(0.03795587079236828 0 0)
(0.03796598852463885 0 0)
(0.0379784073667043 0 0)
(0.03799563308303376 0 0)
(0.03802149810379776 0 0)
(0.03805521731479441 0 0)
(0.03809320259889638 0 0)
(0.03813673859547165 0 0)
(0.03818354057743772 0 0)
(0.03823730409772442 0 0)
(0.03830859324564943 0 0)
(0.03839045209741786 0 0)
(0.03847178092976816 0 0)
(0.03856207423033484 0 0)
(0.03865775502992911 0 0)
(0.03875841467954092 0 0)
(0.03886170382756907 0 0)
(0.03897115181256371 0 0)
(0.03908432989996277 0 0)
(0.03919843488102781 0 0)
(0.03931530899292821 0 0)
(0.03940744633231587 0 0)
(0.03950100198165478 0 0)
(0.03961284890266672 0 0)
(0.0397153075045667 0 0)
(0.03981386854951809 0 0)
(0.03990728957637021 0 0)
(0.03999749238240484 0 0)
(0.04008528558203241 0 0)
(0.0401653172282525 0 0)
(0.04023342578252423 0 0)
(0.04029635053054469 0 0)
(0.04033318856152769 0 0)
(0.04038173288676027 0 0)
(0.04043242413227625 0 0)
(0.04045729036126483 0 0)
(0.04047963376422814 0 0)
(0.04049499720600452 0 0)
(0.04050679952991881 0 0)
(0.04051449039054447 0 0)
(0.04052244176164124 0 0)
(0.04052915130979464 0 0)
(0.04053737163826766 0 0)
(0.04054253303304117 0 0)
(0.04054950669689054 0 0)
(0.04051532044643585 0 0)
(0.04053700541777552 0 0)
(0.04054414234220759 0 0)
(0.04055679247552506 0 0)
(0.04057197109691751 0 0)
(0.04059286193010196 0 0)
(0.0406238082477237 0 0)
(0.04066216625476531 0 0)
(0.04070326106459861 0 0)
(0.04075432329371351 0 0)
(0.04079372317360588 0 0)
(0.04086109154198761 0 0)
(0.040947086901982 0 0)
(0.04102475844995753 0 0)
(0.04111256449747929 0 0)
(0.04120585192063356 0 0)
(0.04130457601530719 0 0)
(0.04140681134663854 0 0)
(0.04151533682914865 0 0)
(0.04162644669196002 0 0)
(0.04174217642205764 0 0)
(0.04185150246124546 0 0)
(0.04198190593461205 0 0)
(0.04202607779622503 0 0)
(0.04215954494105874 0 0)
(0.04226000233327804 0 0)
(0.04236199147601562 0 0)
(0.04245705990335401 0 0)
(0.04254704216020842 0 0)
(0.04263444661189721 0 0)
(0.04271794703847064 0 0)
(0.04279254873754315 0 0)
(0.04285859071829576 0 0)
(0.04290375259913275 0 0)
(0.04295110823384745 0 0)
(0.04299911607342113 0 0)
(0.04303258533325354 0 0)
(0.04305579217888671 0 0)
(0.04307356710131675 0 0)
(0.04308657700752217 0 0)
(0.04309521854125394 0 0)
(0.04310349457391081 0 0)
(0.04311271573703337 0 0)
(0.04311944790321003 0 0)
(0.04312419568304247 0 0)
(0.04314175687317682 0 0)
(0.04309723862346927 0 0)
(0.04311760523489595 0 0)
(0.04312611827770475 0 0)
(0.04313844332890727 0 0)
(0.04315280864098755 0 0)
(0.04317147683548547 0 0)
(0.04319755378129078 0 0)
(0.04323167905707184 0 0)
(0.04327437294037843 0 0)
(0.04332176938569113 0 0)
(0.04337208958845781 0 0)
(0.04342510395285556 0 0)
(0.04349795356165258 0 0)
(0.04358568340854099 0 0)
(0.04366673077611803 0 0)
(0.0437588921307816 0 0)
(0.04385603696534224 0 0)
(0.04395725884840927 0 0)
(0.04406119281784952 0 0)
(0.04417564976061288 0 0)
(0.04428877653309257 0 0)
(0.04440114619444296 0 0)
(0.04451824263684453 0 0)
(0.04460258835734134 0 0)
(0.0446963479273572 0 0)
(0.04481262802719382 0 0)
(0.04491373996177563 0 0)
(0.045010241942947 0 0)
(0.04510270364937746 0 0)
(0.04519358012388333 0 0)
(0.04527735096332966 0 0)
(0.04535073226205832 0 0)
(0.04542792869936564 0 0)
(0.04555892515697178 0 0)
(0.04555119964417987 0 0)
)
;

boundaryField
{
    inlet
    {
        type            calculated;
        value           uniform (0.005059507889832189 0 0);
    }
    outlet
    {
        type            calculated;
        value           uniform (0.04555119964417987 0 0);
    }
    frontAndBack
    {
        type            empty;
    }
}


// ************************************************************************* //
