/*--------------------------------*- C++ -*----------------------------------*\
| =========                 |                                                 |
| \\      /  F ield         | OpenFOAM: The Open Source CFD Toolbox           |
|  \\    /   O peration     | Version:  v2012                                 |
|   \\  /    A nd           | Website:  www.openfoam.com                      |
|    \\/     M anipulation  |                                                 |
\*---------------------------------------------------------------------------*/
FoamFile
{
    version     2.0;
    format      ascii;
    class       volScalarField;
    location    "0.002";
    object      p;
}
// * * * * * * * * * * * * * * * * * * * * * * * * * * * * * * * * * * * * * //

dimensions      [1 -1 -2 0 0 0 0];


internalField   nonuniform List<scalar> 
1000
(
101310.9353048979
101313.5672823345
101306.8327360252
101301.5441486982
101295.7174257357
101290.4766411763
101285.9470829732
101282.0649210347
101278.7446945148
101276.5347490857
101275.9585286467
101275.9717222181
101276.3402223606
101277.3506242307
101279.3260927036
101282.3297503665
101286.2477978781
101290.9013876409
101296.1437992833
101301.8743653492
101308.0096261355
101314.458543054
101321.1146082923
101327.8556424076
101334.5467269708
101341.0516721044
101347.2550414179
101353.0876505582
101358.5401844323
101363.6226321306
101368.1788338391
101371.5635947521
101373.0169406797
101373.1860231805
101373.1119515629
101372.8497097903
101372.1074172228
101370.6539615991
101368.2800695202
101364.890612189
101360.5252427754
101355.3372411245
101349.5308573703
101343.2976049284
101336.7863573151
101330.110654921
101323.3707532576
101316.6688557529
101310.1092828971
101303.7809843768
101297.7286518488
101291.9502043158
101286.4971844417
101281.744095949
101278.5840746741
101277.5087254105
101277.4356255459
101277.4764349525
101277.7376393322
101278.3802423147
101279.6299856102
101281.6779839878
101284.6604848352
101288.6210315872
101293.4984239655
101299.1408271401
101305.3440440868
101311.8988367755
101318.6262352477
101325.3883681755
101332.0822133231
101338.6354357765
101345.0118391504
101351.2098771224
101357.2235681872
101362.9248926462
101367.8261210412
101370.9820917017
101372.0201513376
101372.0960461761
101372.0394006813
101371.8340702282
101371.2872255084
101370.2244988069
101368.4605719611
101365.8445564814
101362.2861868463
101357.7796129984
101352.409464601
101346.3365424527
101339.7681661318
101332.921646949
101325.9890064484
101319.111462954
101312.3704324246
101305.7942935997
101299.3777482065
101293.1324241039
101287.2298623679
101282.2704653054
101279.2684845117
101278.3940957094
101278.3497528867
101278.3860263996
101278.594147767
101279.0994688038
101280.078284375
101281.6960333084
101284.0980796613
101287.3839543872
101291.5878602047
101296.6657049888
101302.4958846187
101308.8975711489
101315.6621006095
101322.5873508079
101329.507702902
101336.3163816915
101342.9735361266
101349.4861263756
101355.8413901808
101361.8637611441
101366.9745115279
101370.1784598084
101371.2037326328
101371.2820276334
101371.2394655941
101371.0814269298
101370.6543106398
101369.8144189466
101368.4017600287
101366.2698436439
101363.3027907499
101359.4360919883
101354.6717285229
101349.084418378
101342.8167086433
101336.0604855064
101329.0247611177
101321.8974727507
101314.8153188426
101307.852892158
101301.0384196184
101294.4162540021
101288.2059711026
101283.0657365286
101280.014771936
101279.1361763713
101279.0864692107
101279.1137943411
101279.2777741382
101279.685156666
101280.4835852098
101281.8173935153
101283.8233366174
101286.6126733414
101290.2552593995
101294.7643252917
101300.0876408379
101306.1099967662
101312.66754457
101319.5711032063
101326.635937914
101333.7136364365
101340.7134828666
101347.5936437394
101354.3011953219
101360.6308265216
101365.9865705885
101369.3704481854
101370.4959217743
101370.5960961636
101370.5652588986
101370.4468988586
101370.1100656545
101369.4319703375
101368.2709780568
101366.4909053846
101363.9722598563
101360.6281174242
101356.4179044108
101351.3578590462
101345.5259638534
101339.0570909217
101332.1246276992
101324.9113827274
101317.5795074737
101310.2505957245
101303.0090534098
101295.9565385144
101289.3685801958
101283.9499781063
101280.7329471555
101279.7794546846
101279.7140663275
101279.7346081993
101279.8653883419
101280.1975398418
101280.8592184607
101281.9787239499
101283.6831962257
101286.0847427077
101289.2679336274
101293.2764225988
101298.1027273147
101303.6848348367
101309.9106771398
101316.6302921193
101323.6766700623
101330.8935639464
101338.1591000843
101345.3855620244
101352.4719683266
101359.1749257519
101364.877904229
101368.5612797339
101369.863992799
101370.0027238399
101369.9810923595
101369.8916527822
101369.6227556546
101369.0677523904
101368.1005350933
101366.5954707859
101364.4351623837
101361.5230806102
101357.7952090454
101353.2306063891
101347.8594144117
101341.7644142141
101335.0721490298
101327.9345431493
101320.5068237504
101312.9289814888
101305.3235233168
101297.8412207521
101290.8100432154
101284.9864678247
101281.4622639015
101280.3615405667
101280.2701688166
101280.2834385708
101280.385836861
101280.6564630126
101281.2096682962
101282.1602465457
101283.6252450543
101285.7130309006
101288.5137700946
101292.0882675515
101296.4582499027
101301.6007404877
101307.4474320633
101313.88981275
101320.7923060597
101328.0131268064
101335.4241342856
101342.9130615339
101350.3453596499
101357.447304866
101363.5802396802
101367.6746789194
101369.2325758241
101369.4297578413
101369.4158048599
101369.3489833327
101369.1311635337
101368.6667318189
101367.841129544
101366.5394446281
101364.6518911292
101362.0849835797
101358.7740742566
101354.6980590001
101349.897091914
101344.4985056634
101338.7665204365
101333.2002383747
101328.6339098904
101325.9573647316
101325.1067745245
101325.0033273735
101325.0000189794
101325.0000000139
101325.0000000005
101325.0000000004
101325.0000000004
101325.0000000005
101325.0000000006
101325.0000000006
101325.0000000006
101325.0000000006
101325.0000000006
101325.0000000006
101325.0000000006
101325.0000000006
101325.0000000005
101325.0000000005
101325.0000000005
101325.0000000006
101325.0000000006
101325.0000000006
101325.0000000006
101325.0000000006
101325.0000000006
101325.0000000006
101325.0000000006
101325.0000000006
101325.0000000005
101325.0000000005
101325.0000000006
101325.0000000005
101325.0000000006
101325.0000000006
101325.0000000005
101325.0000000005
101325.0000000005
101325.0000000006
101325.0000000005
101325.0000000005
101325.0000000005
101325.0000000005
101325.0000000005
101325.0000000005
101325.0000000005
101325.0000000004
101325.0000000004
101325.0000000004
101325.0000000005
101325.0000000005
101325.0000000005
101325.0000000005
101325.0000000005
101325.0000000004
101325.0000000004
101325.0000000004
101325.0000000004
101325.0000000004
101325.0000000004
101325.0000000004
101325.0000000004
101325.0000000004
101325.0000000005
101325.0000000005
101325.0000000005
101325.0000000004
101325.0000000005
101325.0000000005
101325.0000000004
101325.0000000005
101325.0000000004
101325.0000000004
101325.0000000004
101325.0000000005
101325.0000000004
101325.0000000004
101325.0000000003
101325.0000000003
101325.0000000003
101325.0000000003
101325.0000000003
101325.0000000002
101325.0000000003
101325.0000000003
101325.0000000003
101325.0000000003
101325.0000000004
101325.0000000004
101325.0000000004
101325.0000000004
101325.0000000003
101325.0000000003
101325.0000000003
101325.0000000003
101325.0000000004
101325.0000000004
101325.0000000004
101325.0000000004
101325.0000000004
101325.0000000003
101325.0000000003
101325.0000000004
101325.0000000004
101325.0000000004
101325.0000000003
101325.0000000003
101325.0000000003
101325.0000000003
101325.0000000002
101325.0000000002
101325.0000000002
101325.0000000002
101325.0000000002
101325.0000000002
101325.0000000003
101325.0000000004
101325.0000000004
101325.0000000005
101325.0000000005
101325.0000000005
101325.0000000005
101325.0000000005
101325.0000000005
101325.0000000005
101325.0000000006
101325.0000000005
101325.0000000006
101325.0000000005
101325.0000000005
101325.0000000005
101325.0000000005
101325.0000000005
101325.0000000005
101325.0000000004
101325.0000000004
101325.0000000003
101325.0000000003
101325.0000000002
101325.0000000002
101325.0000000002
101325.0000000002
101325.0000000002
101325.0000000003
101325.0000000003
101325.0000000002
101325.0000000002
101325.0000000002
101325.0000000003
101325.0000000002
101325.0000000002
101325.0000000003
101325.0000000003
101325.0000000003
101325.0000000003
101325.0000000004
101325.0000000004
101325.0000000003
101325.0000000003
101325.0000000004
101325.0000000003
101325.0000000002
101325.0000000003
101325.0000000003
101325.0000000003
101325.0000000003
101325.0000000003
101325.0000000002
101325.0000000002
101325.0000000003
101325.0000000003
101325.0000000003
101325.0000000003
101325.0000000003
101325.0000000004
101325.0000000004
101325.0000000004
101325.0000000005
101325.0000000004
101325.0000000005
101325.0000000004
101325.0000000004
101325.0000000003
101325.0000000003
101325.0000000003
101325.0000000003
101325.0000000003
101325.0000000002
101325.0000000003
101325.0000000003
101325.0000000002
101325.0000000002
101325.0000000003
101325.0000000002
101325.0000000002
101325.0000000003
101325.0000000003
101325.0000000003
101325.0000000003
101325.0000000003
101325.0000000004
101325.0000000004
101325.0000000004
101325.0000000004
101325.0000000004
101325.0000000004
101325.0000000004
101325.0000000004
101325.0000000004
101325.0000000005
101325.0000000005
101325.0000000005
101325.0000000005
101325.0000000005
101325.0000000005
101325.0000000005
101325.0000000005
101325.0000000005
101325.0000000005
101325.0000000005
101325.0000000005
101325.0000000005
101325.0000000006
101325.0000000005
101325.0000000004
101325.0000000004
101325.0000000004
101325.0000000004
101325.0000000004
101325.0000000004
101325.0000000004
101325.0000000004
101325.0000000004
101325.0000000004
101325.0000000004
101325.0000000005
101325.0000000004
101325.0000000004
101325.0000000004
101325.0000000004
101325.0000000004
101325.0000000003
101325.0000000004
101325.0000000004
101325.0000000005
101325.0000000005
101325.0000000004
101325.0000000005
101325.0000000004
101325.0000000005
101325.0000000004
101325.0000000004
101325.0000000004
101325.0000000004
101325.0000000004
101325.0000000005
101325.0000000005
101325.0000000004
101325.0000000003
101325.0000000003
101325.0000000003
101325.0000000003
101325.0000000004
101325.0000000004
101325.0000000004
101325.0000000004
101325.0000000004
101325.0000000003
101325.0000000004
101325.0000000004
101325.0000000004
101325.0000000004
101325.0000000005
101325.0000000006
101325.0000000005
101325.0000000005
101325.0000000005
101325.0000000005
101325.0000000005
101325.0000000005
101325.0000000005
101325.0000000004
101325.0000000003
101325.0000000003
101325.0000000003
101325.0000000003
101325.0000000003
101325.0000000003
101325.0000000003
101325.0000000003
101325.0000000003
101325.0000000003
101325.0000000004
101325.0000000004
101325.0000000004
101325.0000000004
101325.0000000004
101325.0000000003
101325.0000000003
101325.0000000003
101325.0000000003
101325.0000000003
101325.0000000003
101325.0000000003
101325.0000000003
101325.0000000004
101325.0000000005
101325.0000000005
101325.0000000005
101325.0000000005
101325.0000000005
101325.0000000005
101325.0000000005
101325.0000000006
101325.0000000006
101325.0000000006
101325.0000000007
101325.0000000007
101325.0000000006
101325.0000000006
101325.0000000005
101325.0000000005
101325.0000000005
101325.0000000005
101325.0000000005
101325.0000000005
101325.0000000004
101325.0000000005
101325.0000000004
101325.0000000004
101325.0000000004
101325.0000000004
101325.0000000005
101325.0000000005
101325.0000000006
101325.0000000006
101325.0000000006
101325.0000000006
101325.0000000006
101325.0000000007
101325.0000000006
101325.0000000006
101325.0000000006
101325.0000000006
101325.0000000006
101325.0000000006
101325.0000000006
101325.0000000007
101325.0000000007
101325.0000000007
101325.0000000007
101325.0000000006
101325.0000000006
101325.0000000005
101325.0000000005
101325.0000000005
101325.0000000005
101325.0000000005
101325.0000000005
101325.0000000006
101325.0000000006
101325.0000000006
101325.0000000006
101325.0000000006
101325.0000000006
101325.0000000006
101325.0000000006
101325.0000000006
101325.0000000006
101325.0000000006
101325.0000000006
101325.0000000006
101325.0000000006
101325.0000000006
101325.0000000006
101325.0000000006
101325.0000000006
101325.0000000007
101325.0000000006
101325.0000000006
101325.0000000005
101325.0000000006
101325.0000000005
101325.0000000005
101325.0000000006
101325.0000000005
101325.0000000005
101325.0000000004
101325.0000000004
101325.0000000004
101325.0000000004
101325.0000000003
101325.0000000003
101325.0000000003
101325.0000000004
101325.0000000004
101325.0000000004
101325.0000000004
101325.0000000004
101325.0000000004
101325.0000000004
101325.0000000005
101325.0000000005
101325.0000000005
101325.0000000005
101325.0000000004
101325.0000000004
101325.0000000004
101325.0000000005
101325.0000000004
101325.0000000004
101325.0000000004
101325.0000000004
101325.0000000004
101325.0000000005
101325.0000000005
101325.0000000006
101325.0000000006
101325.0000000006
101325.0000000007
101325.0000000006
101325.0000000006
101325.0000000006
101325.0000000006
101325.0000000006
101325.0000000006
101325.0000000005
101325.0000000005
101325.0000000005
101325.0000000005
101325.0000000004
101325.0000000004
101325.0000000004
101325.0000000004
101325.0000000004
101325.0000000003
101325.0000000002
101325.0000000002
101325.0000000001
101325.0000000002
101325.0000000002
101325.0000000002
101325.0000000003
101325.0000000003
101325.0000000003
101325.0000000004
101325.0000000004
101325.0000000004
101325.0000000003
101325.0000000003
101325.0000000003
101325.0000000003
101325.0000000003
101325.0000000004
101325.0000000004
101325.0000000004
101325.0000000005
101325.0000000004
101325.0000000004
101325.0000000004
101325.0000000004
101325.0000000004
101325.0000000004
101325.0000000004
101325.0000000004
101325.0000000003
101325.0000000003
101325.0000000002
101325.0000000003
101325.0000000003
101325.0000000003
101325.0000000003
101325.0000000003
101325.0000000003
101325.0000000003
101325.0000000003
101325.0000000003
101325.0000000003
101325.0000000004
101325.0000000003
101325.0000000004
101325.0000000004
101325.0000000004
101325.0000000004
101325.0000000004
101325.0000000004
101325.0000000004
101325.0000000004
101325.0000000004
101325.0000000003
101325.0000000003
101325.0000000003
101325.0000000003
101325.0000000003
101325.0000000003
101325.0000000003
101325.0000000003
101325.0000000003
101325.0000000004
101325.0000000004
101325.0000000004
101325.0000000004
101325.0000000004
101325.0000000004
101325.0000000004
101325.0000000003
101325.0000000003
101325.0000000003
101325.0000000003
101325.0000000003
101325.0000000003
101325.0000000003
101325.0000000003
101325.0000000003
101325.0000000003
101325.0000000003
101325.0000000003
101325.0000000003
101325.0000000003
101325.0000000004
101325.0000000004
101325.0000000004
101325.0000000004
101325.0000000004
101325.0000000004
101325.0000000004
101325.0000000003
101325.0000000004
101325.0000000004
101325.0000000005
101325.0000000005
101325.0000000005
101325.0000000005
101325.0000000005
101325.0000000005
101325.0000000005
101325.0000000006
101325.0000000006
101325.0000000006
101325.0000000006
101325.0000000006
101325.0000000007
101325.0000000007
101325.0000000006
101325.0000000007
101325.0000000007
101325.0000000007
101325.0000000006
101325.0000000006
101325.0000000006
101325.0000000006
101325.0000000006
101325.0000000006
101325.0000000006
101325.0000000006
101325.0000000006
101325.0000000006
101325.0000000006
101325.0000000006
101325.0000000006
101325.0000000006
101325.0000000006
101325.0000000006
101325.0000000006
101325.0000000006
101325.0000000006
101325.0000000005
101325.0000000006
101325.0000000005
101325.0000000005
101325.0000000004
101325.0000000004
101325.0000000004
101325.0000000004
101325.0000000005
101325.0000000005
101325.0000000005
101325.0000000005
101325.0000000005
101325.0000000006
101325.0000000005
101325.0000000005
101325.0000000004
101325.0000000004
101325.0000000005
101325.0000000004
101325.0000000004
101325.0000000004
101325.0000000003
101325.0000000003
101325.0000000003
101325.0000000003
101325.0000000003
101325.0000000003
101325.0000000002
101325.0000000003
101325.0000000003
101325.0000000002
101325.0000000002
101325.0000000002
101325.0000000001
101325.0000000001
101325.0000000001
101325.0000000001
101325.0000000001
101325.0000000001
101325.0000000001
101325.0000000001
101325.0000000001
101325.0000000001
101325.0000000001
101325.0000000001
101325.0000000001
101325.0000000001
101325.0000000001
101325
101324.9999999999
101324.9999999999
101324.9999999998
101324.9999999999
101324.9999999999
101324.9999999998
101324.9999999997
101324.9999999998
101324.9999999997
101324.9999999996
101324.9999999996
101324.9999999996
101324.9999999996
101324.9999999994
101324.9999999993
101324.9999999992
101324.9999999991
101324.999999999
101324.9999999989
101324.9999999989
101324.9999999987
101324.9999999986
101324.9999999985
101324.9999999985
101324.9999999984
101324.9999999982
101324.9999999981
101324.999999998
101324.999999998
101324.9999999978
101324.9999999977
101324.9999999975
101324.9999999974
101324.9999999972
101324.999999997
101324.9999999968
101324.9999999966
101324.9999999963
101324.999999996
101324.9999999959
101324.9999999957
101324.9999999956
101324.9999999956
101324.9999999955
101324.9999999955
101324.9999999955
101324.9999999954
101324.9999999954
101324.9999999953
101324.9999999953
101324.9999999953
101324.9999999953
101324.9999999952
101324.9999999951
101324.9999999951
101324.9999999951
101324.999999995
101324.999999995
101324.999999995
101324.9999999951
101324.9999999951
101324.9999999951
101324.9999999951
101324.9999999951
101324.9999999951
101324.9999999952
101324.9999999952
101324.9999999952
101324.9999999952
101324.9999999952
101324.9999999951
101324.9999999951
101324.9999999951
101324.999999995
101324.999999995
101324.999999995
101324.999999995
101324.999999995
101324.9999999951
101324.9999999951
101324.9999999951
101324.9999999952
101324.9999999952
101324.9999999952
101324.9999999952
101324.9999999952
101324.9999999952
101324.9999999951
101324.999999995
101324.9999999949
101324.9999999949
101324.9999999948
101324.9999999949
101324.9999999949
101324.9999999949
101324.999999995
101324.999999995
101324.999999995
101324.999999995
101324.999999995
101324.999999995
101324.9999999948
101324.9999999947
101324.9999999946
101324.9999999943
)
;

boundaryField
{
    inlet
    {
        type            uniformFixedValue;
        uniformValue    sine;
        uniformValueCoeffs
        {
            frequency       constant 3000;
            scale           constant 50;
            level           constant 101325;
        }
        value           uniform 101323.6421297957;
    }
    outlet
    {
        type            pressureOutletNSCBC;
        pInf            101325;
        gamma           1.4;
        etaAc           1;
        fieldInf        1;
        lInf            2.25;
        value           uniform 101324.9999999944;
    }
    frontAndBack
    {
        type            empty;
    }
}


// ************************************************************************* //
