/*--------------------------------*- C++ -*----------------------------------*\
| =========                 |                                                 |
| \\      /  F ield         | OpenFOAM: The Open Source CFD Toolbox           |
|  \\    /   O peration     | Version:  v2012                                 |
|   \\  /    A nd           | Website:  www.openfoam.com                      |
|    \\/     M anipulation  |                                                 |
\*---------------------------------------------------------------------------*/
FoamFile
{
    version     2.0;
    format      ascii;
    class       volScalarField;
    location    "0.002";
    object      pMean;
}
// * * * * * * * * * * * * * * * * * * * * * * * * * * * * * * * * * * * * * //

dimensions      [1 -1 -2 0 0 0 0];


internalField   nonuniform List<scalar> 
1000
(
101325.0516802431
101325.022831578
101325.0890230235
101325.1507188377
101325.2444149766
101325.3566090189
101325.4868277014
101325.6334369152
101325.7925110215
101325.963260675
101326.1388882122
101326.3158051466
101326.4913398548
101326.6653599364
101326.8334967821
101326.993783797
101327.1412405791
101327.2742636709
101327.3890661654
101327.4849548271
101327.5590312211
101327.6111530757
101327.6391833367
101327.6436920423
101327.6234807412
101327.5799772909
101327.5129864322
101327.4247131052
101327.3155764285
101327.1877909489
101327.0418238417
101326.8811461682
101326.7105871168
101326.5375515991
101326.3641125357
101326.1914572546
101326.0203761143
101325.8530903956
101325.6923172632
101325.5416279412
101325.4044852583
101325.2842796718
101325.1835541524
101325.1043643419
101325.0479244772
101325.0151790983
101325.0065078207
101325.0220869974
101325.0615587833
101325.1243021582
101325.2093847221
101325.3158938296
101325.4428322631
101325.5886434337
101325.7495952268
101325.9188655176
101326.0901077607
101326.2613279802
101326.4319124657
101326.6011832617
101326.7670224381
101326.9274151987
101327.0788453129
101327.2183432365
101327.3420258971
101327.4472786752
101327.5312054666
101327.5925387712
101327.6298312663
101327.6430910512
101327.631924175
101327.5970881809
101327.5387270146
101327.4578709892
101327.3547798854
101327.2305856478
101327.0865497663
101326.9272027025
101326.759540115
101326.5902025471
101326.4207479154
101326.2518088864
101326.0841068038
101325.9191336216
101325.7590090807
101325.6064746103
101325.4647219313
101325.3371480196
101325.2270364875
101325.1372635861
101325.0700436922
101325.0268419129
101325.0083777393
101325.0147724266
101325.0456990681
101325.1006295226
101325.1789864786
101325.280253041
101325.4036631588
101325.5472695971
101325.7061883928
101325.8726236597
101326.0405834887
101326.2085090324
101326.3759304389
101326.542298333
101326.705997627
101326.8653884899
101327.0176642843
101327.1601527706
101327.2893295531
101327.4022508787
101327.4956631283
101327.567411494
101327.6154587972
101327.6390870925
101327.6376859957
101327.6117080711
101327.5613213257
101327.4873248452
101327.3899585225
101327.2702111743
101327.129663014
101326.9732672884
101326.8085583664
101326.6421360246
101326.4756015351
101326.309465349
101326.1442858256
101325.9812582838
101325.8220819968
101325.6690440169
101325.5248820396
101325.3927090544
101325.2757429488
101325.1771214525
101325.0995792357
101325.0452934566
101325.0157037147
101325.011558044
101325.0329673837
101325.0796725982
101325.1512082202
101325.2470601173
101325.3663132028
101325.5067005877
101325.662847416
101325.8266018884
101325.9918935033
101326.1571720293
101326.3220624088
101326.4860979212
101326.6479810009
101326.8063173705
101326.9587643207
101327.1029585135
101327.2357616952
101327.3543021552
101327.4553247784
101327.5362794223
101327.5946770652
101327.6290892296
101327.6383360021
101327.6222680367
101327.580749287
101327.5143260364
101327.4232633732
101327.3085879849
101327.1721259145
101327.0190104689
101326.8570632668
101326.6931294889
101326.5290505373
101326.3652743116
101326.202245129
101326.0409298601
101325.8827619025
101325.7296707293
101325.5840579977
101325.4487028715
101325.3266368129
101325.220953804
101325.1345934414
101325.0701371746
101325.0296203027
101325.0144519667
101325.0253932478
101325.0626991962
101325.1262470757
101325.2156486859
101325.3299242616
101325.4665499038
101325.6197749128
101325.7810689628
101325.9440739645
101326.1071015406
101326.2698176991
101326.4318460493
101326.5920982438
101326.7493945238
101326.9017142833
101327.046978235
101327.1823662397
101327.3051911548
101327.4123081725
101327.5010481258
101327.5686707544
101327.6132671742
101327.6331295523
101327.6274895704
101327.5957290452
101327.5379722466
101327.4543020494
101327.3456468163
101327.2139287019
101327.0643537154
101326.9050351974
101326.7432789336
101326.5813239531
101326.4196015993
101326.2584680546
101326.0987196159
101325.941577114
101325.7886908317
101325.6421776356
101325.5045196123
101325.3785297916
101325.2671599262
101325.1733892087
101325.0999827289
101325.0493777194
101325.02348804
101325.0237005521
101325.0508375889
101325.1052969317
101325.1870015747
101325.2951562257
101325.4271884345
101325.5771686925
101325.7360918154
101325.8970655362
101326.0580912486
101326.2188895978
101326.3791256417
101326.5379002395
101326.6941736856
101326.8462049958
101326.992128104
101327.1294277994
101327.2555946038
101327.3676690022
101327.4629636687
101327.538654735
101327.5925150025
101327.622459014
101327.6271805948
101327.605575408
101327.5572627413
101327.4819859353
101327.3803911084
101327.2542745813
101327.1087539348
101326.9522018602
101326.7925854326
101326.6326775363
101326.4729559449
101326.3136942592
101326.1555836763
101325.9996719646
101325.847423426
101325.7007089109
101325.5617714255
101325.4331494194
101325.3175522683
101325.2176796669
101325.135968816
101325.0742217401
101325.03299153
101325.0105716718
101325.00199326
101325.0001632614
101325.0000039539
101325.000000019
101325.0000000003
101325.0000000002
101325.0000000002
101325.0000000002
101325.0000000003
101325.0000000002
101325.0000000003
101325.0000000002
101325.0000000003
101325.0000000003
101325.0000000003
101325.0000000003
101325.0000000003
101325.0000000002
101325.0000000003
101325.0000000002
101325.0000000003
101325.0000000003
101325.0000000003
101325.0000000003
101325.0000000003
101325.0000000003
101325.0000000002
101325.0000000003
101325.0000000002
101325.0000000003
101325.0000000003
101325.0000000003
101325.0000000002
101325.0000000002
101325.0000000003
101325.0000000002
101325.0000000002
101325.0000000003
101325.0000000003
101325.0000000003
101325.0000000003
101325.0000000003
101325.0000000003
101325.0000000003
101325.0000000003
101325.0000000003
101325.0000000003
101325.0000000003
101325.0000000003
101325.0000000003
101325.0000000003
101325.0000000003
101325.0000000003
101325.0000000003
101325.0000000003
101325.0000000002
101325.0000000003
101325.0000000002
101325.0000000002
101325.0000000003
101325.0000000003
101325.0000000002
101325.0000000002
101325.0000000002
101325.0000000002
101325.0000000002
101325.0000000002
101325.0000000002
101325.0000000003
101325.0000000002
101325.0000000003
101325.0000000003
101325.0000000003
101325.0000000003
101325.0000000003
101325.0000000003
101325.0000000003
101325.0000000003
101325.0000000003
101325.0000000003
101325.0000000003
101325.0000000003
101325.0000000003
101325.0000000003
101325.0000000003
101325.0000000003
101325.0000000003
101325.0000000003
101325.0000000003
101325.0000000003
101325.0000000003
101325.0000000003
101325.0000000003
101325.0000000003
101325.0000000003
101325.0000000003
101325.0000000003
101325.0000000003
101325.0000000003
101325.0000000003
101325.0000000003
101325.0000000003
101325.0000000003
101325.0000000003
101325.0000000003
101325.0000000003
101325.0000000003
101325.0000000003
101325.0000000003
101325.0000000003
101325.0000000003
101325.0000000003
101325.0000000003
101325.0000000003
101325.0000000003
101325.0000000003
101325.0000000003
101325.0000000003
101325.0000000003
101325.0000000003
101325.0000000003
101325.0000000003
101325.0000000003
101325.0000000003
101325.0000000003
101325.0000000003
101325.0000000003
101325.0000000003
101325.0000000003
101325.0000000003
101325.0000000003
101325.0000000003
101325.0000000003
101325.0000000003
101325.0000000003
101325.0000000003
101325.0000000003
101325.0000000003
101325.0000000003
101325.0000000003
101325.0000000003
101325.0000000003
101325.0000000003
101325.0000000003
101325.0000000003
101325.0000000003
101325.0000000003
101325.0000000003
101325.0000000003
101325.0000000003
101325.0000000003
101325.0000000003
101325.0000000003
101325.0000000003
101325.0000000003
101325.0000000003
101325.0000000003
101325.0000000003
101325.0000000003
101325.0000000003
101325.0000000003
101325.0000000003
101325.0000000003
101325.0000000003
101325.0000000003
101325.0000000003
101325.0000000003
101325.0000000003
101325.0000000003
101325.0000000003
101325.0000000003
101325.0000000003
101325.0000000003
101325.0000000003
101325.0000000003
101325.0000000003
101325.0000000003
101325.0000000003
101325.0000000003
101325.0000000003
101325.0000000003
101325.0000000003
101325.0000000003
101325.0000000003
101325.0000000003
101325.0000000003
101325.0000000003
101325.0000000003
101325.0000000003
101325.0000000003
101325.0000000003
101325.0000000003
101325.0000000003
101325.0000000003
101325.0000000003
101325.0000000003
101325.0000000003
101325.0000000003
101325.0000000003
101325.0000000003
101325.0000000003
101325.0000000003
101325.0000000003
101325.0000000003
101325.0000000003
101325.0000000003
101325.0000000003
101325.0000000003
101325.0000000003
101325.0000000003
101325.0000000003
101325.0000000003
101325.0000000003
101325.0000000003
101325.0000000003
101325.0000000003
101325.0000000003
101325.0000000003
101325.0000000003
101325.0000000003
101325.0000000003
101325.0000000003
101325.0000000003
101325.0000000003
101325.0000000003
101325.0000000003
101325.0000000003
101325.0000000003
101325.0000000003
101325.0000000003
101325.0000000003
101325.0000000003
101325.0000000003
101325.0000000003
101325.0000000003
101325.0000000003
101325.0000000003
101325.0000000003
101325.0000000003
101325.0000000003
101325.0000000003
101325.0000000003
101325.0000000003
101325.0000000003
101325.0000000003
101325.0000000003
101325.0000000003
101325.0000000003
101325.0000000003
101325.0000000003
101325.0000000003
101325.0000000003
101325.0000000003
101325.0000000003
101325.0000000003
101325.0000000003
101325.0000000003
101325.0000000003
101325.0000000003
101325.0000000003
101325.0000000003
101325.0000000003
101325.0000000003
101325.0000000003
101325.0000000003
101325.0000000003
101325.0000000003
101325.0000000003
101325.0000000003
101325.0000000003
101325.0000000003
101325.0000000003
101325.0000000003
101325.0000000003
101325.0000000003
101325.0000000003
101325.0000000003
101325.0000000003
101325.0000000003
101325.0000000003
101325.0000000003
101325.0000000003
101325.0000000003
101325.0000000003
101325.0000000003
101325.0000000003
101325.0000000003
101325.0000000003
101325.0000000003
101325.0000000003
101325.0000000003
101325.0000000003
101325.0000000003
101325.0000000003
101325.0000000003
101325.0000000003
101325.0000000003
101325.0000000003
101325.0000000003
101325.0000000003
101325.0000000003
101325.0000000003
101325.0000000003
101325.0000000003
101325.0000000003
101325.0000000003
101325.0000000003
101325.0000000003
101325.0000000003
101325.0000000003
101325.0000000003
101325.0000000003
101325.0000000003
101325.0000000003
101325.0000000003
101325.0000000003
101325.0000000003
101325.0000000003
101325.0000000003
101325.0000000003
101325.0000000003
101325.0000000003
101325.0000000003
101325.0000000003
101325.0000000003
101325.0000000003
101325.0000000003
101325.0000000003
101325.0000000003
101325.0000000003
101325.0000000002
101325.0000000003
101325.0000000003
101325.0000000003
101325.0000000003
101325.0000000003
101325.0000000003
101325.0000000003
101325.0000000003
101325.0000000003
101325.0000000003
101325.0000000003
101325.0000000003
101325.0000000003
101325.0000000002
101325.0000000003
101325.0000000003
101325.0000000003
101325.0000000003
101325.0000000003
101325.0000000003
101325.0000000003
101325.0000000003
101325.0000000003
101325.0000000003
101325.0000000003
101325.0000000003
101325.0000000003
101325.0000000003
101325.0000000003
101325.0000000003
101325.0000000003
101325.0000000002
101325.0000000002
101325.0000000002
101325.0000000003
101325.0000000003
101325.0000000003
101325.0000000003
101325.0000000003
101325.0000000003
101325.0000000003
101325.0000000003
101325.0000000003
101325.0000000003
101325.0000000003
101325.0000000003
101325.0000000003
101325.0000000003
101325.0000000002
101325.0000000002
101325.0000000003
101325.0000000003
101325.0000000003
101325.0000000003
101325.0000000003
101325.0000000002
101325.0000000002
101325.0000000002
101325.0000000002
101325.0000000003
101325.0000000002
101325.0000000003
101325.0000000003
101325.0000000002
101325.0000000003
101325.0000000003
101325.0000000003
101325.0000000002
101325.0000000002
101325.0000000002
101325.0000000002
101325.0000000002
101325.0000000002
101325.0000000002
101325.0000000002
101325.0000000002
101325.0000000002
101325.0000000002
101325.0000000002
101325.0000000002
101325.0000000002
101325.0000000003
101325.0000000002
101325.0000000002
101325.0000000003
101325.0000000002
101325.0000000002
101325.0000000002
101325.0000000002
101325.0000000003
101325.0000000003
101325.0000000003
101325.0000000002
101325.0000000002
101325.0000000002
101325.0000000002
101325.0000000002
101325.0000000002
101325.0000000002
101325.0000000002
101325.0000000002
101325.0000000002
101325.0000000002
101325.0000000002
101325.0000000002
101325.0000000002
101325.0000000002
101325.0000000003
101325.0000000003
101325.0000000002
101325.0000000002
101325.0000000002
101325.0000000002
101325.0000000002
101325.0000000002
101325.0000000002
101325.0000000002
101325.0000000002
101325.0000000002
101325.0000000002
101325.0000000002
101325.0000000003
101325.0000000002
101325.0000000002
101325.0000000002
101325.0000000002
101325.0000000002
101325.0000000002
101325.0000000002
101325.0000000002
101325.0000000002
101325.0000000002
101325.0000000002
101325.0000000002
101325.0000000002
101325.0000000002
101325.0000000002
101325.0000000002
101325.0000000002
101325.0000000002
101325.0000000002
101325.0000000002
101325.0000000002
101325.0000000002
101325.0000000002
101325.0000000002
101325.0000000002
101325.0000000002
101325.0000000002
101325.0000000002
101325.0000000002
101325.0000000002
101325.0000000002
101325.0000000002
101325.0000000002
101325.0000000002
101325.0000000002
101325.0000000002
101325.0000000002
101325.0000000002
101325.0000000002
101325.0000000002
101325.0000000002
101325.0000000002
101325.0000000002
101325.0000000002
101325.0000000002
101325.0000000002
101325.0000000002
101325.0000000002
101325.0000000003
101325.0000000003
101325.0000000003
101325.0000000003
101325.0000000003
101325.0000000003
101325.0000000002
101325.0000000002
101325.0000000002
101325.0000000002
101325.0000000002
101325.0000000002
101325.0000000002
101325.0000000002
101325.0000000002
101325.0000000002
101325.0000000002
101325.0000000002
101325.0000000002
101325.0000000002
101325.0000000002
101325.0000000002
101325.0000000002
101325.0000000002
101325.0000000002
101325.0000000002
101325.0000000002
101325.0000000002
101325.0000000002
101325.0000000002
101325.0000000002
101325.0000000002
101325.0000000002
101325.0000000002
101325.0000000002
101325.0000000002
101325.0000000003
101325.0000000003
101325.0000000003
101325.0000000003
101325.0000000003
101325.0000000003
101325.0000000003
101325.0000000003
101325.0000000003
101325.0000000003
101325.0000000003
101325.0000000003
101325.0000000003
101325.0000000003
101325.0000000003
101325.0000000003
101325.0000000003
101325.0000000002
101325.0000000002
101325.0000000002
101325.0000000002
101325.0000000002
101325.0000000002
101325.0000000003
101325.0000000002
101325.0000000003
101325.0000000003
101325.0000000003
101325.0000000003
101325.0000000003
101325.0000000003
101325.0000000003
101325.0000000003
101325.0000000003
101325.0000000003
101325.0000000003
101325.0000000003
101325.0000000003
101325.0000000003
101325.0000000003
101325.0000000003
101325.0000000003
101325.0000000003
101325.0000000003
101325.0000000003
101325.0000000003
101325.0000000003
101325.0000000003
101325.0000000003
101325.0000000003
101325.0000000003
101325.0000000003
101325.0000000003
101325.0000000003
101325.0000000003
101325.0000000003
101325.0000000003
101325.0000000003
101325.0000000003
101325.0000000003
101325.0000000003
101325.0000000003
101325.0000000003
101325.0000000003
101325.0000000003
101325.0000000003
101325.0000000003
101325.0000000003
101325.0000000003
101325.0000000003
101325.0000000003
101325.0000000003
101325.0000000003
101325.0000000003
101325.0000000003
101325.0000000003
101325.0000000003
101325.0000000003
101325.0000000003
101325.0000000003
101325.0000000003
101325.0000000003
101325.0000000003
101325.0000000003
101325.0000000003
101325.0000000003
101325.0000000003
101325.0000000003
101325.0000000003
101325.0000000003
101325.0000000003
101325.0000000003
101325.0000000003
101325.0000000003
101325.0000000003
101325.0000000003
101325.0000000003
101325.0000000003
101325.0000000002
101325.0000000002
101325.0000000002
101325.0000000002
101325.0000000002
101325.0000000002
101325.0000000002
101325.0000000002
101325.0000000001
101325.0000000001
101325.0000000002
101325.0000000002
101325.0000000001
101325.0000000002
101325.0000000001
101325.0000000001
101325.0000000001
101325.0000000001
101325.0000000001
101325.0000000001
101325.0000000001
101325.0000000001
101325
101325
101325
101325
101325
101324.9999999999
101324.9999999999
101324.9999999999
101324.9999999999
101324.9999999999
101324.9999999999
101324.9999999999
101324.9999999999
101324.9999999999
101324.9999999998
101324.9999999998
101324.9999999998
101324.9999999998
101324.9999999998
101324.9999999997
101324.9999999997
101324.9999999997
101324.9999999996
101324.9999999996
101324.9999999996
101324.9999999997
101324.9999999996
101324.9999999996
101324.9999999996
101324.9999999996
101324.9999999996
101324.9999999996
101324.9999999995
101324.9999999995
101324.9999999995
101324.9999999995
101324.9999999994
101324.9999999994
101324.9999999994
101324.9999999994
101324.9999999994
101324.9999999993
101324.9999999993
101324.9999999993
101324.9999999994
101324.9999999993
101324.9999999993
101324.9999999993
101324.9999999993
101324.9999999993
101324.9999999993
101324.9999999993
101324.9999999993
101324.9999999993
101324.9999999992
101324.9999999992
101324.9999999991
101324.9999999991
101324.9999999991
101324.9999999991
101324.9999999991
101324.9999999991
101324.999999999
101324.999999999
)
;

boundaryField
{
    inlet
    {
        type            calculated;
        value           uniform 101325.0000000002;
    }
    outlet
    {
        type            calculated;
        value           uniform 101324.999999999;
    }
    frontAndBack
    {
        type            empty;
    }
}


// ************************************************************************* //
