/*--------------------------------*- C++ -*----------------------------------*\
| =========                 |                                                 |
| \\      /  F ield         | OpenFOAM: The Open Source CFD Toolbox           |
|  \\    /   O peration     | Version:  v2012                                 |
|   \\  /    A nd           | Website:  www.openfoam.com                      |
|    \\/     M anipulation  |                                                 |
\*---------------------------------------------------------------------------*/
FoamFile
{
    version     2.0;
    format      ascii;
    class       volScalarField;
    location    "0.002";
    object      rho;
}
// * * * * * * * * * * * * * * * * * * * * * * * * * * * * * * * * * * * * * //

dimensions      [1 -3 0 0 0 0 0];


internalField   nonuniform List<scalar> 
1000
(
1.17629413193526
1.176317704036895
1.17626425123894
1.176221217485043
1.176171208858585
1.176125768043614
1.176087351861738
1.176055174337524
1.176027901696299
1.176009737804361
1.176004999709205
1.176005080510814
1.176008084127384
1.176016474761122
1.176032936575734
1.176057917080787
1.176090432963489
1.176129013524961
1.176172465066339
1.17621996606891
1.176270828315235
1.176324296322651
1.176379485445847
1.17643538147377
1.176490864805354
1.176544805140749
1.176596244139167
1.176644607221454
1.176689816694658
1.176731955395978
1.176769729262795
1.176797790256939
1.176809838342911
1.176811239267643
1.176810624719614
1.176808450759409
1.176802297299226
1.176790247503804
1.176770566166666
1.17674246455171
1.176706271239389
1.176663256842475
1.176615114614359
1.176563432268397
1.176509444035475
1.176454091234131
1.176398205080883
1.176342633004071
1.176288240055882
1.176235763899277
1.176185575244344
1.176137656958189
1.176092436595
1.176053020012824
1.17602681420213
1.176017896366844
1.176017290151124
1.176017628583374
1.176019794748261
1.176025123839609
1.176035487904836
1.176052471787381
1.176077205249084
1.176110049188146
1.176150495821504
1.176197285746378
1.176248725387948
1.176303079460889
1.176358863779455
1.176414935051403
1.176470439029894
1.176524775978002
1.176577645841371
1.176629035878554
1.176678896575363
1.176726166603922
1.176766802394288
1.176792968078742
1.176801574429869
1.176802203656752
1.176801734019482
1.176800031667114
1.17679549789038
1.176786687024621
1.176772062584418
1.176750373478513
1.17672087115855
1.176683506885577
1.176638982044163
1.176588629569251
1.176534168158611
1.176477399462828
1.176419915563409
1.176362887403358
1.176306990124816
1.176252459118488
1.176199250525456
1.176147460845496
1.176098512709498
1.176057385336121
1.176032490196933
1.176025238937747
1.176024871203996
1.17602517201804
1.176026897961001
1.176031088567952
1.176039205830014
1.176052621681923
1.176072541532182
1.176099790635125
1.176134652418362
1.176176760974807
1.17622510760175
1.176278192519258
1.176334285208181
1.176391709511766
1.176449092077691
1.176505547569436
1.176560745617348
1.176614744002273
1.176667436979009
1.176717368999466
1.17675974204335
1.176786305569017
1.176794805928166
1.17679545505685
1.176795102182854
1.176793791914985
1.176790250775643
1.176783287382935
1.176771575242455
1.176753899759843
1.176729300076544
1.176697241166892
1.17665773921289
1.176611413425042
1.176559445404487
1.176503425899437
1.176445087762116
1.17638598922123
1.176327263750337
1.176269529916131
1.176213021848204
1.176158107420034
1.176106607613373
1.17606398069723
1.17603867939732
1.17603139326751
1.176030981048698
1.176031207654072
1.176032567530031
1.17603594593089
1.176042567244269
1.176053628392727
1.176070263414771
1.176093394860867
1.176123601869706
1.17616099393808
1.176205137674648
1.176255077422501
1.176309454226508
1.176366699149645
1.176425280232662
1.176483966809024
1.176542006700385
1.176599053090015
1.176654667237472
1.176707146986545
1.176751551404012
1.176779606772099
1.176788937898585
1.17678976842686
1.176789512760212
1.176788531458182
1.17678573883385
1.176780116858602
1.176770491240727
1.176755732856836
1.176734850921696
1.176707124613644
1.176672217336764
1.176630263470556
1.176581909297416
1.176528272800159
1.176470791368479
1.176410980603476
1.176350184931388
1.176289412574147
1.176229363461413
1.17617088064569
1.176116249112942
1.17607131388363
1.176044635476099
1.176036728247114
1.176036185986093
1.176036356338125
1.176037440889243
1.176040195399054
1.176045682647726
1.176054966595673
1.176069101559224
1.176089017152093
1.176115414573884
1.176148655652887
1.17618867810963
1.176234967432062
1.176286594029651
1.176342314123774
1.176400742651696
1.176460583891613
1.176520827232719
1.176580745358558
1.176639501030496
1.176695076331854
1.176742359837773
1.176772898393944
1.176783699008014
1.176784849205172
1.176784669862029
1.176783928333403
1.176781698951896
1.176777097506943
1.176769078443265
1.176756600121887
1.176738689152073
1.176714545108022
1.176683637068874
1.176645791192314
1.176601257126078
1.176550720944505
1.176495231589328
1.176436048507399
1.176374458616859
1.176311622591661
1.176248556222097
1.176186509771792
1.176128203059456
1.176079909649717
1.176050683972421
1.176041555788885
1.176040798051072
1.17604090809619
1.17604175727759
1.176044001559065
1.176048589241954
1.176056472287399
1.176068621324683
1.176085934967664
1.176109160848015
1.17613880305955
1.176175041577207
1.17621768562453
1.176266168498962
1.176319590115633
1.176376826007677
1.176436700296274
1.17649815032404
1.176560245135629
1.176621869109033
1.176680752803692
1.176731601303256
1.176765548059194
1.176778464396245
1.176780099204601
1.176779983522854
1.176779429516367
1.176777623606308
1.17677377307138
1.176766928112085
1.176756135982217
1.176740486408517
1.176719204224415
1.176691753307595
1.176657958506772
1.17661815253286
1.17657339091136
1.176525864215285
1.176479710716798
1.176441847926239
1.176419654504953
1.176412601532919
1.176411743762376
1.176411716329572
1.176411716172312
1.176411716172201
1.176411716172201
1.176411716172201
1.176411716172201
1.176411716172202
1.176411716172203
1.176411716172203
1.176411716172203
1.176411716172203
1.176411716172203
1.176411716172203
1.176411716172203
1.176411716172203
1.176411716172202
1.176411716172202
1.176411716172203
1.176411716172203
1.176411716172203
1.176411716172203
1.176411716172203
1.176411716172203
1.176411716172203
1.176411716172203
1.176411716172202
1.176411716172202
1.176411716172202
1.176411716172203
1.176411716172203
1.176411716172203
1.176411716172203
1.176411716172203
1.176411716172202
1.176411716172202
1.176411716172203
1.176411716172203
1.176411716172202
1.176411716172202
1.176411716172202
1.176411716172202
1.176411716172202
1.176411716172201
1.176411716172201
1.176411716172201
1.176411716172201
1.176411716172201
1.176411716172201
1.176411716172201
1.176411716172201
1.176411716172201
1.1764117161722
1.1764117161722
1.1764117161722
1.176411716172201
1.176411716172201
1.1764117161722
1.1764117161722
1.1764117161722
1.176411716172201
1.176411716172201
1.176411716172201
1.176411716172201
1.176411716172201
1.176411716172201
1.176411716172201
1.176411716172201
1.176411716172201
1.176411716172201
1.176411716172201
1.176411716172201
1.176411716172201
1.1764117161722
1.1764117161722
1.176411716172199
1.176411716172199
1.176411716172199
1.176411716172199
1.176411716172199
1.176411716172199
1.176411716172199
1.1764117161722
1.1764117161722
1.1764117161722
1.176411716172201
1.176411716172201
1.176411716172201
1.1764117161722
1.1764117161722
1.1764117161722
1.1764117161722
1.1764117161722
1.1764117161722
1.1764117161722
1.1764117161722
1.1764117161722
1.1764117161722
1.176411716172199
1.176411716172199
1.1764117161722
1.176411716172201
1.176411716172201
1.1764117161722
1.1764117161722
1.1764117161722
1.1764117161722
1.176411716172199
1.176411716172199
1.176411716172199
1.176411716172199
1.176411716172199
1.176411716172199
1.1764117161722
1.176411716172201
1.176411716172201
1.176411716172202
1.176411716172202
1.176411716172202
1.176411716172202
1.176411716172202
1.176411716172202
1.176411716172202
1.176411716172202
1.176411716172202
1.176411716172202
1.176411716172202
1.176411716172202
1.176411716172202
1.176411716172202
1.176411716172201
1.176411716172201
1.176411716172201
1.176411716172201
1.1764117161722
1.1764117161722
1.176411716172199
1.176411716172199
1.176411716172199
1.176411716172199
1.176411716172199
1.176411716172199
1.176411716172199
1.176411716172199
1.176411716172199
1.176411716172199
1.176411716172199
1.176411716172199
1.176411716172199
1.1764117161722
1.1764117161722
1.1764117161722
1.1764117161722
1.176411716172201
1.176411716172201
1.176411716172201
1.176411716172201
1.176411716172201
1.1764117161722
1.176411716172199
1.1764117161722
1.1764117161722
1.1764117161722
1.1764117161722
1.1764117161722
1.176411716172199
1.176411716172199
1.1764117161722
1.1764117161722
1.176411716172201
1.176411716172201
1.176411716172201
1.176411716172201
1.176411716172201
1.176411716172201
1.176411716172201
1.176411716172201
1.176411716172201
1.176411716172201
1.176411716172201
1.176411716172201
1.176411716172201
1.176411716172201
1.176411716172201
1.176411716172201
1.1764117161722
1.1764117161722
1.1764117161722
1.1764117161722
1.1764117161722
1.1764117161722
1.1764117161722
1.1764117161722
1.1764117161722
1.1764117161722
1.1764117161722
1.1764117161722
1.1764117161722
1.176411716172201
1.176411716172201
1.176411716172201
1.176411716172201
1.176411716172201
1.176411716172201
1.176411716172201
1.176411716172201
1.176411716172201
1.176411716172201
1.176411716172201
1.176411716172201
1.176411716172202
1.176411716172201
1.176411716172202
1.176411716172202
1.176411716172201
1.176411716172201
1.176411716172202
1.176411716172202
1.176411716172202
1.176411716172202
1.176411716172202
1.176411716172201
1.1764117161722
1.1764117161722
1.1764117161722
1.176411716172201
1.176411716172201
1.176411716172201
1.176411716172201
1.176411716172201
1.176411716172201
1.176411716172201
1.176411716172201
1.176411716172201
1.176411716172201
1.176411716172201
1.176411716172201
1.176411716172201
1.176411716172201
1.1764117161722
1.176411716172201
1.176411716172201
1.176411716172201
1.176411716172201
1.176411716172201
1.176411716172202
1.176411716172202
1.176411716172202
1.176411716172202
1.176411716172202
1.176411716172202
1.176411716172202
1.176411716172202
1.176411716172202
1.176411716172201
1.176411716172201
1.176411716172201
1.1764117161722
1.1764117161722
1.176411716172201
1.176411716172201
1.176411716172201
1.176411716172201
1.176411716172201
1.176411716172201
1.1764117161722
1.1764117161722
1.1764117161722
1.1764117161722
1.1764117161722
1.176411716172201
1.176411716172201
1.1764117161722
1.1764117161722
1.176411716172201
1.176411716172201
1.176411716172201
1.176411716172201
1.176411716172201
1.176411716172201
1.1764117161722
1.1764117161722
1.176411716172199
1.1764117161722
1.1764117161722
1.1764117161722
1.176411716172199
1.176411716172199
1.176411716172199
1.1764117161722
1.1764117161722
1.1764117161722
1.1764117161722
1.1764117161722
1.1764117161722
1.1764117161722
1.1764117161722
1.1764117161722
1.1764117161722
1.1764117161722
1.176411716172199
1.176411716172199
1.1764117161722
1.176411716172201
1.176411716172201
1.176411716172201
1.176411716172202
1.176411716172202
1.176411716172202
1.176411716172202
1.176411716172201
1.176411716172202
1.176411716172202
1.176411716172202
1.176411716172202
1.176411716172203
1.176411716172202
1.176411716172202
1.176411716172202
1.176411716172202
1.176411716172202
1.176411716172202
1.176411716172202
1.176411716172201
1.176411716172201
1.176411716172201
1.176411716172201
1.176411716172201
1.176411716172201
1.176411716172201
1.176411716172201
1.176411716172202
1.176411716172202
1.176411716172202
1.176411716172202
1.176411716172202
1.176411716172202
1.176411716172202
1.176411716172202
1.176411716172202
1.176411716172202
1.176411716172202
1.176411716172202
1.176411716172202
1.176411716172202
1.176411716172203
1.176411716172203
1.176411716172203
1.176411716172203
1.176411716172202
1.176411716172202
1.176411716172202
1.176411716172202
1.176411716172201
1.176411716172201
1.176411716172201
1.176411716172202
1.176411716172202
1.176411716172203
1.176411716172203
1.176411716172202
1.176411716172202
1.176411716172202
1.176411716172202
1.176411716172203
1.176411716172203
1.176411716172203
1.176411716172204
1.176411716172204
1.176411716172204
1.176411716172204
1.176411716172204
1.176411716172204
1.176411716172203
1.176411716172203
1.176411716172203
1.176411716172203
1.176411716172203
1.176411716172202
1.176411716172202
1.176411716172202
1.176411716172201
1.176411716172202
1.176411716172201
1.176411716172201
1.176411716172201
1.176411716172201
1.1764117161722
1.1764117161722
1.176411716172199
1.176411716172199
1.176411716172199
1.176411716172199
1.1764117161722
1.1764117161722
1.176411716172201
1.176411716172201
1.176411716172201
1.176411716172201
1.176411716172201
1.176411716172202
1.176411716172202
1.176411716172202
1.176411716172201
1.176411716172201
1.176411716172201
1.176411716172202
1.176411716172201
1.176411716172201
1.176411716172201
1.176411716172201
1.176411716172201
1.176411716172201
1.176411716172202
1.176411716172202
1.176411716172202
1.176411716172202
1.176411716172203
1.176411716172202
1.176411716172202
1.176411716172202
1.176411716172203
1.176411716172203
1.176411716172203
1.176411716172202
1.176411716172202
1.176411716172202
1.176411716172203
1.176411716172203
1.176411716172203
1.176411716172203
1.176411716172202
1.176411716172201
1.176411716172201
1.1764117161722
1.176411716172199
1.176411716172199
1.176411716172199
1.1764117161722
1.1764117161722
1.1764117161722
1.1764117161722
1.1764117161722
1.176411716172201
1.176411716172201
1.176411716172201
1.1764117161722
1.1764117161722
1.1764117161722
1.1764117161722
1.176411716172201
1.176411716172201
1.176411716172201
1.176411716172201
1.176411716172201
1.176411716172201
1.176411716172201
1.176411716172201
1.176411716172201
1.176411716172201
1.176411716172201
1.176411716172201
1.176411716172201
1.1764117161722
1.1764117161722
1.1764117161722
1.1764117161722
1.176411716172201
1.176411716172201
1.1764117161722
1.1764117161722
1.1764117161722
1.1764117161722
1.1764117161722
1.1764117161722
1.1764117161722
1.176411716172201
1.1764117161722
1.176411716172201
1.176411716172201
1.176411716172201
1.176411716172201
1.176411716172202
1.176411716172201
1.176411716172201
1.176411716172201
1.176411716172201
1.176411716172201
1.176411716172201
1.176411716172201
1.1764117161722
1.1764117161722
1.1764117161722
1.1764117161722
1.1764117161722
1.1764117161722
1.1764117161722
1.1764117161722
1.176411716172201
1.176411716172201
1.176411716172201
1.176411716172201
1.176411716172201
1.1764117161722
1.1764117161722
1.176411716172199
1.1764117161722
1.1764117161722
1.1764117161722
1.1764117161722
1.1764117161722
1.1764117161722
1.1764117161722
1.176411716172201
1.176411716172201
1.176411716172201
1.176411716172201
1.176411716172201
1.176411716172201
1.176411716172201
1.176411716172201
1.176411716172201
1.176411716172201
1.176411716172201
1.176411716172201
1.176411716172201
1.176411716172201
1.176411716172202
1.176411716172202
1.176411716172202
1.176411716172202
1.176411716172202
1.176411716172203
1.176411716172203
1.176411716172203
1.176411716172203
1.176411716172203
1.176411716172203
1.176411716172203
1.176411716172203
1.176411716172204
1.176411716172204
1.176411716172205
1.176411716172205
1.176411716172204
1.176411716172204
1.176411716172204
1.176411716172204
1.176411716172204
1.176411716172204
1.176411716172204
1.176411716172204
1.176411716172204
1.176411716172204
1.176411716172204
1.176411716172204
1.176411716172204
1.176411716172204
1.176411716172204
1.176411716172204
1.176411716172203
1.176411716172203
1.176411716172203
1.176411716172203
1.176411716172203
1.176411716172203
1.176411716172203
1.176411716172203
1.176411716172202
1.176411716172202
1.176411716172202
1.176411716172203
1.176411716172203
1.176411716172203
1.176411716172203
1.176411716172203
1.176411716172203
1.176411716172203
1.176411716172202
1.176411716172201
1.176411716172201
1.176411716172201
1.176411716172201
1.176411716172201
1.176411716172201
1.176411716172201
1.1764117161722
1.1764117161722
1.176411716172201
1.1764117161722
1.1764117161722
1.1764117161722
1.1764117161722
1.1764117161722
1.1764117161722
1.1764117161722
1.176411716172199
1.176411716172199
1.176411716172199
1.176411716172199
1.1764117161722
1.1764117161722
1.176411716172199
1.1764117161722
1.1764117161722
1.1764117161722
1.1764117161722
1.1764117161722
1.1764117161722
1.1764117161722
1.1764117161722
1.1764117161722
1.176411716172199
1.176411716172199
1.176411716172198
1.176411716172198
1.176411716172197
1.176411716172197
1.176411716172197
1.176411716172197
1.176411716172196
1.176411716172197
1.176411716172196
1.176411716172196
1.176411716172195
1.176411716172196
1.176411716172195
1.176411716172195
1.176411716172194
1.176411716172192
1.176411716172191
1.17641171617219
1.176411716172189
1.176411716172188
1.176411716172187
1.176411716172186
1.176411716172185
1.176411716172185
1.176411716172185
1.176411716172184
1.176411716172183
1.176411716172182
1.176411716172182
1.176411716172181
1.176411716172179
1.176411716172178
1.176411716172178
1.176411716172176
1.176411716172174
1.176411716172173
1.17641171617217
1.176411716172168
1.176411716172166
1.176411716172165
1.176411716172164
1.176411716172163
1.176411716172162
1.176411716172162
1.176411716172161
1.176411716172161
1.176411716172161
1.17641171617216
1.176411716172159
1.176411716172159
1.176411716172158
1.176411716172158
1.176411716172158
1.176411716172158
1.176411716172158
1.176411716172158
1.176411716172157
1.176411716172157
1.176411716172156
1.176411716172156
1.176411716172156
1.176411716172157
1.176411716172157
1.176411716172157
1.176411716172158
1.176411716172159
1.176411716172159
1.176411716172159
1.176411716172159
1.176411716172159
1.176411716172158
1.176411716172158
1.176411716172157
1.176411716172157
1.176411716172156
1.176411716172156
1.176411716172156
1.176411716172156
1.176411716172157
1.176411716172157
1.176411716172157
1.176411716172158
1.176411716172158
1.176411716172158
1.176411716172158
1.176411716172157
1.176411716172157
1.176411716172157
1.176411716172156
1.176411716172155
1.176411716172155
1.176411716172155
1.176411716172155
1.176411716172155
1.176411716172155
1.176411716172155
1.176411716172156
1.176411716172156
1.176411716172156
1.176411716172157
1.176411716172157
1.176411716172156
1.176411716172155
1.176411716172154
1.176411716172151
)
;

boundaryField
{
    inlet
    {
        type            calculated;
        value           uniform 1.176395950917642;
    }
    outlet
    {
        type            calculated;
        value           uniform 1.176411716172136;
    }
    frontAndBack
    {
        type            empty;
    }
}


// ************************************************************************* //
