/*--------------------------------*- C++ -*----------------------------------*\
| =========                 |                                                 |
| \\      /  F ield         | OpenFOAM: The Open Source CFD Toolbox           |
|  \\    /   O peration     | Version:  v2012                                 |
|   \\  /    A nd           | Website:  www.openfoam.com                      |
|    \\/     M anipulation  |                                                 |
\*---------------------------------------------------------------------------*/
FoamFile
{
    version     2.0;
    format      ascii;
    class       volScalarField;
    location    "0.002";
    object      T;
}
// * * * * * * * * * * * * * * * * * * * * * * * * * * * * * * * * * * * * * //

dimensions      [0 0 0 1 0 0 0];


internalField   nonuniform List<scalar> 
1000
(
299.9883419911855
299.9901238597621
299.9838143243766
299.9791288403275
299.9746282855394
299.9706975811295
299.967081264622
299.9637908584479
299.960913525393
299.9590011529899
299.9585030343051
299.958521501225
299.9588468022782
299.9596992308571
299.9613512613118
299.9638756325183
299.9671860067878
299.9711277026767
299.9755705491792
299.9804258521041
299.9856218936533
299.9910816871113
299.9967154060998
300.0024198972217
300.0080812057198
300.0135843838383
300.0188321142203
300.0237661730834
300.0283788743563
300.032678738419
300.0365335623454
300.039397337371
300.0406271247635
300.0407703884067
300.0407078394958
300.0404859396299
300.0398578133997
300.0386281214174
300.0366198244222
300.033752372883
300.030059238591
300.0256700176988
300.0207574344165
300.0154834586554
300.0099740099651
300.0043251354058
299.9986216603189
299.9929500751674
299.9873986772226
299.9820427684945
299.9769202017903
299.9720292437981
299.9674135490331
299.9633901610292
299.9607151908866
299.959804888526
299.9597430079388
299.9597775538087
299.9599986678858
299.9605426410554
299.9616005603208
299.9633341890619
299.9658588278956
299.9692112843717
299.97333968804
299.9781154478964
299.9833656646005
299.9889131954704
299.9946065421032
300.0003290125897
300.0059934260663
300.0115385842806
300.0169338774293
300.0221780173091
300.0272659627007
300.0320894265946
300.0362358305256
300.0389056785065
300.0397838291221
300.0398480327929
300.0398001138142
300.0396264141164
300.0391638073413
300.0382647813013
300.0367725516122
300.0345594458238
300.0315490583491
300.0277363799112
300.0231929369579
300.0180547015273
300.0124970203135
300.0067037214542
300.0008372651951
299.9950171496907
299.9893122848032
299.9837467052044
299.9783159456586
299.97302986594
299.9680336863856
299.9638356764121
299.961294496044
299.9605543139692
299.9605167772045
299.9605474834917
299.9607236609824
299.9611514203094
299.9619799929044
299.9633494132434
299.9653827103467
299.9681640993437
299.9717224786087
299.9760204594165
299.9809550405934
299.9863731036999
299.9920979933125
299.9979586201338
300.0038148165572
300.0095762336578
300.0152091659445
300.0207195201327
300.0260965149176
300.0311916351312
300.0355153210108
300.0382257713009
300.0390931094096
300.0391593436087
300.0391233380604
300.038989643979
300.0386283203145
300.0379178014218
300.0367227319114
300.0349191682482
300.0324090486245
300.0291377519392
300.0251068922063
300.0203796112801
300.0150764402171
300.0093596710391
300.0034061132574
299.9973747744064
299.9913813301705
299.9854889168255
299.9797214396081
299.9741164566875
299.9688598500909
299.9645087919013
299.9619261601641
299.9611824207752
299.9611403431529
299.9611634742786
299.9613022846175
299.9616471364558
299.9623230081171
299.9634520713889
299.965150073892
299.9675111680131
299.9705944434249
299.9744110430059
299.9789166901571
299.9840138004078
299.9895636323296
299.9954060257492
300.0013846110932
300.0073737843475
300.0132967855275
300.0191182289083
300.024793351942
300.0301484762708
300.0346794615962
300.0375421450405
300.038494253847
300.0385789974353
300.038552910412
300.038452782351
300.0381678334907
300.0375941868277
300.0366120184756
300.0351061089702
300.032975347717
300.0301461617868
300.0265841745793
300.0223030597214
300.0173687223453
300.0118952041958
300.0060291508457
299.9999252040181
299.9937205529998
299.9875180898282
299.9813892529331
299.9754200969315
299.9698438649162
299.965257209343
299.9625340180073
299.9617268814849
299.9616715297812
299.9616889186913
299.9617996247535
299.9620807919703
299.9626409027528
299.9635885578031
299.965031369454
299.9670642150368
299.9697586488497
299.9731515758111
299.9772366037503
299.9819611767273
299.9872303734559
299.9929172118213
299.9988803020016
300.0049873869125
300.0111353205188
300.0172498783725
300.0232456275291
300.0289166662658
300.0337414570016
300.0368575298339
300.0379595820604
300.0380769434452
300.0380586440077
300.0379829811996
300.0377555029612
300.037285986745
300.0364677452732
300.0351944876072
300.0333668814037
300.0309032359614
300.0277493517466
300.0238874566611
300.0193429853356
300.0141859043148
300.00852321247
300.0024833993819
299.9961977710947
299.9897847641296
299.983348041939
299.9770152124972
299.9710638966383
299.9661344880487
299.9631512953241
299.9622195311005
299.9621421844724
299.9621534173326
299.9622400975826
299.9624691825452
299.9629374692688
299.9637421267952
299.9649822267049
299.9667494848566
299.9691201991781
299.9721458010741
299.9758446305706
299.9801971786358
299.9851455631522
299.9905978768838
299.9964393184405
300.0025498502329
300.0088210021617
300.0151577567831
300.0214462635982
300.0274549473493
300.0326435417014
300.0361073939868
300.0374253300109
300.0375921393367
300.0375803354841
300.0375238064157
300.0373395371607
300.0369466404451
300.0362481999976
300.0351469963792
300.0335501398089
300.0313785205486
300.0285774132942
300.0251289186593
300.0210669546905
300.0164991975803
300.0116491599858
300.0069391405001
300.0030751100984
300.0008101549618
300.000090356436
300.0000028157382
300.0000000160598
300.0000000000106
299.9999999999993
299.9999999999991
299.9999999999991
299.9999999999992
299.9999999999993
299.9999999999992
299.9999999999992
299.9999999999992
299.9999999999991
299.9999999999991
299.9999999999991
299.999999999999
299.9999999999989
299.999999999999
299.999999999999
299.9999999999991
299.9999999999991
299.9999999999991
299.9999999999993
299.9999999999993
299.9999999999991
299.9999999999992
299.9999999999993
299.9999999999992
299.9999999999991
299.9999999999991
299.9999999999991
299.999999999999
299.999999999999
299.999999999999
299.999999999999
299.999999999999
299.999999999999
299.999999999999
299.999999999999
299.999999999999
299.999999999999
299.999999999999
299.999999999999
299.999999999999
299.9999999999991
299.9999999999991
299.999999999999
299.9999999999991
299.9999999999993
299.9999999999992
299.9999999999991
299.9999999999992
299.9999999999993
299.9999999999992
299.9999999999992
299.9999999999991
299.9999999999991
299.9999999999991
299.9999999999992
299.9999999999991
299.9999999999992
299.9999999999991
299.9999999999991
299.9999999999991
299.9999999999991
299.9999999999991
299.9999999999991
299.9999999999991
299.9999999999991
299.9999999999991
299.9999999999991
299.9999999999991
299.9999999999991
299.9999999999993
299.9999999999993
299.9999999999993
299.9999999999993
299.9999999999993
299.9999999999993
299.9999999999993
299.9999999999993
299.9999999999991
299.9999999999992
299.9999999999991
299.9999999999991
299.9999999999991
299.9999999999991
299.999999999999
299.9999999999991
299.9999999999991
299.9999999999991
299.999999999999
299.9999999999991
299.9999999999991
299.9999999999993
299.9999999999993
299.9999999999993
299.9999999999993
299.9999999999994
299.9999999999993
299.9999999999992
299.9999999999991
299.999999999999
299.9999999999991
299.999999999999
299.999999999999
299.999999999999
299.9999999999989
299.9999999999989
299.9999999999989
299.9999999999988
299.9999999999989
299.9999999999989
299.9999999999989
299.999999999999
299.999999999999
299.999999999999
299.9999999999991
299.9999999999991
299.9999999999991
299.9999999999991
299.9999999999991
299.9999999999991
299.9999999999991
299.9999999999992
299.9999999999991
299.9999999999992
299.9999999999991
299.9999999999991
299.9999999999991
299.9999999999993
299.9999999999992
299.9999999999992
299.9999999999991
299.9999999999991
299.9999999999991
299.999999999999
299.9999999999989
299.999999999999
299.999999999999
299.999999999999
299.9999999999991
299.999999999999
299.999999999999
299.999999999999
299.9999999999991
299.999999999999
299.999999999999
299.9999999999991
299.999999999999
299.999999999999
299.999999999999
299.9999999999989
299.9999999999989
299.999999999999
299.9999999999989
299.9999999999988
299.9999999999989
299.999999999999
299.999999999999
299.9999999999989
299.999999999999
299.999999999999
299.999999999999
299.999999999999
299.9999999999989
299.999999999999
299.9999999999989
299.999999999999
299.9999999999989
299.9999999999989
299.9999999999989
299.9999999999989
299.999999999999
299.9999999999991
299.9999999999991
299.9999999999992
299.9999999999991
299.9999999999991
299.999999999999
299.999999999999
299.9999999999989
299.9999999999988
299.9999999999987
299.9999999999988
299.9999999999988
299.9999999999989
299.9999999999989
299.9999999999989
299.9999999999988
299.9999999999988
299.9999999999988
299.9999999999987
299.9999999999987
299.9999999999989
299.999999999999
299.999999999999
299.999999999999
299.999999999999
299.999999999999
299.999999999999
299.999999999999
299.999999999999
299.9999999999991
299.9999999999991
299.9999999999991
299.9999999999991
299.9999999999992
299.9999999999992
299.9999999999992
299.9999999999991
299.9999999999992
299.9999999999992
299.9999999999992
299.9999999999993
299.9999999999993
299.9999999999991
299.9999999999992
299.9999999999992
299.9999999999991
299.9999999999991
299.9999999999992
299.9999999999992
299.9999999999993
299.9999999999993
299.9999999999992
299.9999999999991
299.9999999999991
299.9999999999991
299.999999999999
299.9999999999991
299.9999999999991
299.9999999999991
299.9999999999991
299.9999999999991
299.9999999999991
299.9999999999991
299.9999999999991
299.9999999999991
299.9999999999991
299.999999999999
299.9999999999991
299.999999999999
299.9999999999991
299.9999999999991
299.999999999999
299.999999999999
299.9999999999989
299.999999999999
299.9999999999989
299.9999999999988
299.9999999999989
299.9999999999989
299.9999999999989
299.999999999999
299.999999999999
299.999999999999
299.9999999999989
299.9999999999989
299.9999999999989
299.9999999999989
299.999999999999
299.9999999999989
299.999999999999
299.999999999999
299.9999999999991
299.9999999999991
299.9999999999992
299.9999999999993
299.9999999999994
299.9999999999993
299.9999999999994
299.9999999999995
299.9999999999994
299.9999999999994
299.9999999999993
299.9999999999993
299.9999999999993
299.9999999999993
299.9999999999992
299.9999999999991
299.9999999999991
299.999999999999
299.9999999999991
299.999999999999
299.999999999999
299.9999999999991
299.9999999999991
299.9999999999991
299.9999999999991
299.9999999999991
299.9999999999991
299.9999999999992
299.9999999999992
299.9999999999992
299.9999999999992
299.9999999999991
299.9999999999989
299.9999999999989
299.9999999999989
299.9999999999989
299.999999999999
299.999999999999
299.999999999999
299.9999999999991
299.9999999999992
299.9999999999991
299.9999999999992
299.9999999999991
299.9999999999991
299.9999999999992
299.9999999999992
299.9999999999993
299.9999999999993
299.9999999999994
299.9999999999995
299.9999999999995
299.9999999999994
299.9999999999993
299.9999999999991
299.999999999999
299.999999999999
299.9999999999991
299.9999999999991
299.9999999999991
299.9999999999991
299.9999999999991
299.999999999999
299.9999999999991
299.999999999999
299.9999999999991
299.9999999999992
299.9999999999992
299.9999999999993
299.9999999999993
299.9999999999993
299.9999999999994
299.9999999999994
299.9999999999995
299.9999999999994
299.9999999999995
299.9999999999995
299.9999999999994
299.9999999999993
299.9999999999994
299.9999999999994
299.9999999999994
299.9999999999994
299.9999999999994
299.9999999999994
299.9999999999993
299.9999999999993
299.9999999999992
299.9999999999992
299.9999999999991
299.9999999999992
299.9999999999991
299.9999999999992
299.9999999999993
299.9999999999993
299.9999999999993
299.9999999999992
299.9999999999993
299.9999999999993
299.9999999999991
299.9999999999991
299.999999999999
299.999999999999
299.9999999999989
299.999999999999
299.9999999999989
299.9999999999989
299.9999999999989
299.9999999999989
299.9999999999989
299.9999999999991
299.9999999999991
299.9999999999991
299.9999999999992
299.9999999999992
299.9999999999993
299.9999999999993
299.9999999999993
299.9999999999993
299.9999999999993
299.9999999999993
299.9999999999991
299.9999999999992
299.9999999999993
299.9999999999993
299.9999999999992
299.9999999999993
299.9999999999993
299.9999999999993
299.9999999999993
299.9999999999992
299.9999999999991
299.999999999999
299.9999999999991
299.9999999999991
299.9999999999991
299.9999999999991
299.999999999999
299.999999999999
299.9999999999989
299.999999999999
299.999999999999
299.9999999999991
299.999999999999
299.999999999999
299.999999999999
299.9999999999991
299.9999999999992
299.9999999999991
299.9999999999992
299.9999999999993
299.9999999999994
299.9999999999994
299.9999999999994
299.9999999999993
299.9999999999993
299.9999999999993
299.9999999999991
299.9999999999991
299.9999999999991
299.999999999999
299.999999999999
299.9999999999989
299.9999999999988
299.9999999999987
299.9999999999987
299.9999999999987
299.9999999999988
299.9999999999989
299.9999999999989
299.9999999999988
299.9999999999989
299.9999999999988
299.9999999999988
299.9999999999988
299.9999999999988
299.9999999999989
299.9999999999989
299.999999999999
299.999999999999
299.999999999999
299.999999999999
299.999999999999
299.999999999999
299.999999999999
299.9999999999989
299.9999999999989
299.999999999999
299.9999999999991
299.9999999999991
299.9999999999991
299.999999999999
299.999999999999
299.999999999999
299.999999999999
299.9999999999991
299.999999999999
299.999999999999
299.999999999999
299.999999999999
299.999999999999
299.9999999999988
299.9999999999989
299.9999999999989
299.9999999999989
299.9999999999989
299.9999999999989
299.9999999999989
299.999999999999
299.999999999999
299.999999999999
299.999999999999
299.999999999999
299.999999999999
299.999999999999
299.9999999999991
299.999999999999
299.999999999999
299.9999999999989
299.9999999999989
299.999999999999
299.999999999999
299.999999999999
299.9999999999989
299.9999999999988
299.9999999999989
299.999999999999
299.999999999999
299.999999999999
299.999999999999
299.999999999999
299.9999999999991
299.9999999999991
299.9999999999991
299.999999999999
299.999999999999
299.999999999999
299.999999999999
299.9999999999991
299.999999999999
299.9999999999991
299.999999999999
299.9999999999991
299.999999999999
299.999999999999
299.999999999999
299.999999999999
299.999999999999
299.9999999999989
299.9999999999989
299.9999999999989
299.9999999999989
299.9999999999989
299.999999999999
299.999999999999
299.999999999999
299.999999999999
299.999999999999
299.9999999999989
299.9999999999989
299.9999999999989
299.9999999999989
299.9999999999989
299.999999999999
299.9999999999991
299.999999999999
299.999999999999
299.999999999999
299.9999999999989
299.9999999999989
299.999999999999
299.9999999999991
299.9999999999991
299.9999999999991
299.9999999999991
299.9999999999991
299.999999999999
299.9999999999989
299.9999999999989
299.999999999999
299.999999999999
299.9999999999989
299.9999999999989
299.9999999999989
299.9999999999989
299.9999999999989
299.9999999999988
299.9999999999988
299.9999999999988
299.9999999999989
299.9999999999988
299.9999999999988
299.9999999999988
299.9999999999989
299.999999999999
299.999999999999
299.9999999999989
299.999999999999
299.9999999999991
299.999999999999
299.9999999999989
299.9999999999989
299.9999999999989
299.9999999999988
299.9999999999988
299.9999999999988
299.9999999999988
299.9999999999987
299.9999999999988
299.9999999999987
299.9999999999987
299.9999999999987
299.9999999999989
299.999999999999
299.999999999999
299.9999999999991
299.999999999999
299.999999999999
299.9999999999991
299.999999999999
299.9999999999991
299.999999999999
299.999999999999
299.999999999999
299.9999999999989
299.9999999999989
299.9999999999989
299.9999999999989
299.9999999999989
299.999999999999
299.9999999999989
299.9999999999989
299.9999999999989
299.9999999999988
299.9999999999987
299.9999999999986
299.9999999999985
299.9999999999984
299.9999999999984
299.9999999999984
299.9999999999984
299.9999999999984
299.9999999999984
299.9999999999984
299.9999999999984
299.9999999999984
299.9999999999985
299.9999999999984
299.9999999999984
299.9999999999984
299.9999999999984
299.9999999999983
299.9999999999983
299.9999999999984
299.9999999999984
299.9999999999983
299.9999999999982
299.9999999999983
299.9999999999981
299.999999999998
299.999999999998
299.9999999999981
299.999999999998
299.9999999999978
299.9999999999978
299.9999999999978
299.9999999999977
299.9999999999976
299.9999999999976
299.9999999999976
299.9999999999976
299.9999999999975
299.9999999999974
299.9999999999975
299.9999999999973
299.9999999999969
299.9999999999968
299.9999999999968
299.9999999999967
299.9999999999966
299.9999999999964
299.9999999999962
299.9999999999961
299.999999999996
299.9999999999958
299.9999999999957
299.9999999999955
299.9999999999952
299.999999999995
299.9999999999949
299.9999999999947
299.9999999999946
299.9999999999946
299.9999999999947
299.9999999999947
299.9999999999947
299.9999999999946
299.9999999999947
299.9999999999947
299.9999999999948
299.9999999999948
299.9999999999948
299.9999999999945
299.9999999999943
299.9999999999943
299.9999999999943
299.9999999999942
299.9999999999943
299.9999999999944
299.9999999999946
299.9999999999947
299.9999999999947
299.9999999999947
299.9999999999945
299.9999999999944
299.9999999999944
299.9999999999943
299.9999999999943
299.9999999999944
299.9999999999944
299.9999999999943
299.9999999999943
299.9999999999943
299.9999999999944
299.9999999999945
299.9999999999945
299.9999999999946
299.9999999999945
299.9999999999945
299.9999999999945
299.9999999999945
299.9999999999945
299.9999999999945
299.9999999999946
299.9999999999947
299.9999999999947
299.9999999999947
299.9999999999946
299.9999999999945
299.9999999999944
299.9999999999944
299.9999999999944
299.9999999999944
299.9999999999945
299.9999999999945
299.9999999999945
299.9999999999945
299.9999999999945
299.9999999999944
299.9999999999943
299.9999999999942
299.9999999999941
299.9999999999939
299.9999999999937
299.9999999999936
)
;

boundaryField
{
    inlet
    {
        type            fixedValue;
        value           uniform 300;
    }
    outlet
    {
        type            temperatureOutletNSCBC;
        pInf            101325;
        gamma           1.4;
        etaAc           1;
        fieldInf        1;
        lInf            2.25;
        value           uniform 299.9999999999978;
    }
    frontAndBack
    {
        type            empty;
    }
}


// ************************************************************************* //
