/*--------------------------------*- C++ -*----------------------------------*\
| =========                 |                                                 |
| \\      /  F ield         | OpenFOAM: The Open Source CFD Toolbox           |
|  \\    /   O peration     | Version:  v2012                                 |
|   \\  /    A nd           | Website:  www.openfoam.com                      |
|    \\/     M anipulation  |                                                 |
\*---------------------------------------------------------------------------*/
FoamFile
{
    version     2.0;
    format      ascii;
    class       volVectorField;
    location    "0.002";
    object      U;
}
// * * * * * * * * * * * * * * * * * * * * * * * * * * * * * * * * * * * * * //

dimensions      [0 1 -1 0 0 0 0];


internalField   nonuniform List<vector> 
1000
(
(-0.002802761619708916 0 0)
(-0.03445036480096723 0 0)
(-0.04263933943187061 0 0)
(-0.05777687711020793 0 0)
(-0.07163246952205819 0 0)
(-0.084559526320752 0 0)
(-0.09560895349117599 0 0)
(-0.1050662069556912 0 0)
(-0.1132226062647184 0 0)
(-0.1186976236338135 0 0)
(-0.1201218454932893 0 0)
(-0.1199557724608781 0 0)
(-0.1191603300530973 0 0)
(-0.1166507019550466 0 0)
(-0.1118199063884294 0 0)
(-0.1044659867246861 0 0)
(-0.09487215448227575 0 0)
(-0.0834749843972334 0 0)
(-0.07063931189199377 0 0)
(-0.05661353944398597 0 0)
(-0.04159455975675712 0 0)
(-0.02580096645032165 0 0)
(-0.009504093724001572 0 0)
(0.006987494228215027 0 0)
(0.02335678763974426 0 0)
(0.03928851262003367 0 0)
(0.05448591941944652 0 0)
(0.06874822191494474 0 0)
(0.08206342786066699 0 0)
(0.09450802065518535 0 0)
(0.1057007672010645 0 0)
(0.1139852315531266 0 0)
(0.1174882288958993 0 0)
(0.1178741304037225 0 0)
(0.1177906402049561 0 0)
(0.117083942025489 0 0)
(0.1152880445013753 0 0)
(0.1117284157321837 0 0)
(0.1059189205014943 0 0)
(0.09762476626105554 0 0)
(0.08694502437382365 0 0)
(0.07425053887901595 0 0)
(0.06003818796685698 0 0)
(0.04478154571809544 0 0)
(0.02884990638986344 0 0)
(0.0125146381383078 0 0)
(-0.003988191239677897 0 0)
(-0.02040103845639131 0 0)
(-0.03645256693695116 0 0)
(-0.05193168724520356 0 0)
(-0.06675491008307428 0 0)
(-0.08092487001811514 0 0)
(-0.09427510508930667 0 0)
(-0.1058809800758829 0 0)
(-0.1136101045590688 0 0)
(-0.1162817624738216 0 0)
(-0.116485863139034 0 0)
(-0.116317665787205 0 0)
(-0.1157198015836347 0 0)
(-0.1141336803879351 0 0)
(-0.1110753109580146 0 0)
(-0.1060612825722117 0 0)
(-0.09875874915104786 0 0)
(-0.08905944289963197 0 0)
(-0.07711659974491451 0 0)
(-0.06330448861850603 0 0)
(-0.04811920242637505 0 0)
(-0.03206910933750168 0 0)
(-0.01559757522007148 0 0)
(0.0009505201997681504 0 0)
(0.01732882637087442 0 0)
(0.03337305605378969 0 0)
(0.04898937891790595 0 0)
(0.06415306498204219 0 0)
(0.07885162574271881 0 0)
(0.09280443820011611 0 0)
(0.1048234949869175 0 0)
(0.112552045607977 0 0)
(0.1150610289488895 0 0)
(0.1152273804787326 0 0)
(0.1151431716356162 0 0)
(0.1146071831533507 0 0)
(0.1132793170582229 0 0)
(0.1106776064590364 0 0)
(0.1063608729576877 0 0)
(0.09995923825257022 0 0)
(0.0912535639466473 0 0)
(0.08022677008340637 0 0)
(0.06708330932336588 0 0)
(0.05221968948302785 0 0)
(0.03614713003978329 0 0)
(0.01939338071960459 0 0)
(0.002421306688479668 0 0)
(-0.01441940146133758 0 0)
(-0.03091759538464753 0 0)
(-0.04700645683938712 0 0)
(-0.06271795533888493 0 0)
(-0.07802490708142445 0 0)
(-0.09247854993863207 0 0)
(-0.1045996597872438 0 0)
(-0.1119405242371699 0 0)
(-0.1141065160512276 0 0)
(-0.1142385209205171 0 0)
(-0.1141007496495129 0 0)
(-0.1136188167445695 0 0)
(-0.11237334219245 0 0)
(-0.1099776606301418 0 0)
(-0.1060169600115654 0 0)
(-0.1001356185302275 0 0)
(-0.09208869008225441 0 0)
(-0.08179491530765168 0 0)
(-0.06936416360984637 0 0)
(-0.05509135196814111 0 0)
(-0.03941652270737545 0 0)
(-0.02285466937218186 0 0)
(-0.005905872409238555 0 0)
(0.01102907719314698 0 0)
(0.02769787145002111 0 0)
(0.04399847886930705 0 0)
(0.05993282914582562 0 0)
(0.07547246375929575 0 0)
(0.09021171837643979 0 0)
(0.1027363926005895 0 0)
(0.1105790047812556 0 0)
(0.1130659274027166 0 0)
(0.1132433730331356 0 0)
(0.1131797154554893 0 0)
(0.1127675411268887 0 0)
(0.1117302511343829 0 0)
(0.1096740597309873 0 0)
(0.1062170601680177 0 0)
(0.1010001211302429 0 0)
(0.0937409907233777 0 0)
(0.08427979578888763 0 0)
(0.07261950363936133 0 0)
(0.05894518668112513 0 0)
(0.04360821612380331 0 0)
(0.0270747737258299 0 0)
(0.009851440530144362 0 0)
(-0.007598195781231022 0 0)
(-0.02493134219598651 0 0)
(-0.04196870885538535 0 0)
(-0.05865470455228121 0 0)
(-0.07487935837287418 0 0)
(-0.0900840371834712 0 0)
(-0.1026536177076738 0 0)
(-0.1101196287190515 0 0)
(-0.1122905915073813 0 0)
(-0.1124255471469368 0 0)
(-0.1123239546619629 0 0)
(-0.1119433419224136 0 0)
(-0.1109394368356624 0 0)
(-0.1089853271688063 0 0)
(-0.1057198268724196 0 0)
(-0.100808188920251 0 0)
(-0.09397721318065543 0 0)
(-0.08505804833760734 0 0)
(-0.07401952509279774 0 0)
(-0.06098691471754214 0 0)
(-0.04624061773612895 0 0)
(-0.03018589174912869 0 0)
(-0.01328969198935607 0 0)
(0.004000652611222723 0 0)
(0.02132858811451188 0 0)
(0.03846633190149617 0 0)
(0.05529953328119553 0 0)
(0.07170417094487808 0 0)
(0.08719778134389793 0 0)
(0.1003190586285937 0 0)
(0.1085979845981605 0 0)
(0.1113328622490253 0 0)
(0.1115689999295351 0 0)
(0.1115287678646407 0 0)
(0.111215067417721 0 0)
(0.1103985805774632 0 0)
(0.1087381557750717 0 0)
(0.1058970639422455 0 0)
(0.1015411382974296 0 0)
(0.09537907763356444 0 0)
(0.08719647383165817 0 0)
(0.07689260426677115 0 0)
(0.06450912433084929 0 0)
(0.05023873168591605 0 0)
(0.03440838485309802 0 0)
(0.01743854202897095 0 0)
(-0.0002200327647663442 0 0)
(-0.01816420112090528 0 0)
(-0.03610001078802879 0 0)
(-0.05383144842636949 0 0)
(-0.07110691040484318 0 0)
(-0.08723495593404351 0 0)
(-0.1004893761192989 0 0)
(-0.108364912605219 0 0)
(-0.1107150673776146 0 0)
(-0.1108848382338133 0 0)
(-0.1108060942427809 0 0)
(-0.1105039034292562 0 0)
(-0.1096848933083512 0 0)
(-0.1080656327884613 0 0)
(-0.1053247697714937 0 0)
(-0.1011512201890622 0 0)
(-0.09526996618301534 0 0)
(-0.08747576505909645 0 0)
(-0.07766247044095811 0 0)
(-0.06584618484420948 0 0)
(-0.05217783606327749 0 0)
(-0.03693546610087568 0 0)
(-0.02048872076126922 0 0)
(-0.003241941366781322 0 0)
(0.01442681372107689 0 0)
(0.03221324061746148 0 0)
(0.04989420447983278 0 0)
(0.06722942208608064 0 0)
(0.08363799700989689 0 0)
(0.09760479178629837 0 0)
(0.1066138016099481 0 0)
(0.1097870568671209 0 0)
(0.110121511024202 0 0)
(0.1100970756431148 0 0)
(0.1098568769034364 0 0)
(0.1092061949636866 0 0)
(0.1078468793540406 0 0)
(0.1054799658909539 0 0)
(0.1017970779653557 0 0)
(0.09651178097852457 0 0)
(0.08938625285328634 0 0)
(0.08026287177756015 0 0)
(0.06909231354074133 0 0)
(0.05594955503179875 0 0)
(0.04103396948571326 0 0)
(0.02465235982033431 0 0)
(0.007180281545677453 0 0)
(-0.01099767695071009 0 0)
(-0.02954379057643952 0 0)
(-0.04816672780161611 0 0)
(-0.06649222222000138 0 0)
(-0.08370309370704337 0 0)
(-0.09795096824798316 0 0)
(-0.1065823141159623 0 0)
(-0.1092910419682925 0 0)
(-0.1095201352199326 0 0)
(-0.1094627934543011 0 0)
(-0.1092295873420769 0 0)
(-0.1085611081671091 0 0)
(-0.1072076388630266 0 0)
(-0.1048802803117927 0 0)
(-0.1012930059473639 0 0)
(-0.09618019852963071 0 0)
(-0.08932258438639414 0 0)
(-0.08057156374367221 0 0)
(-0.06987208474799275 0 0)
(-0.05728017061437188 0 0)
(-0.04296627985717871 0 0)
(-0.0271974641636033 0 0)
(-0.01030153281445628 0 0)
(0.007376944207968693 0 0)
(0.02551826165163499 0 0)
(0.04384200205266905 0 0)
(0.06202654604671547 0 0)
(0.07941255472356042 0 0)
(0.09442825625747664 0 0)
(0.1044412564122523 0 0)
(0.108242409171068 0 0)
(0.1087224766105178 0 0)
(0.108712569065135 0 0)
(0.1085293661469905 0 0)
(0.1080032349018056 0 0)
(0.1068653173553302 0 0)
(0.1048454520185647 0 0)
(0.1016603531883503 0 0)
(0.09704168799220053 0 0)
(0.09076058246973054 0 0)
(0.08265873800527272 0 0)
(0.07268435544658322 0 0)
(0.06093550601416812 0 0)
(0.04772359778181263 0 0)
(0.03369509631982574 0 0)
(0.02007147519675518 0 0)
(0.008894780184779745 0 0)
(0.002343382006588799 0 0)
(0.0002613573188776815 0 0)
(8.144578570846475e-06 0 0)
(4.645479162685654e-08 0 0)
(3.181834447261262e-11 0 0)
(-1.087881033664324e-12 0 0)
(-9.573353096245311e-13 0 0)
(-8.006804407769493e-13 0 0)
(-6.875408132757924e-13 0 0)
(-4.699646065430184e-13 0 0)
(-3.394188825032488e-13 0 0)
(-2.175762067328762e-13 0 0)
(-1.65357917116992e-13 0 0)
(-4.090432686578305e-13 0 0)
(-3.394188825033077e-13 0 0)
(-2.349823032715603e-13 0 0)
(-6.962438615454697e-14 0 0)
(-2.872005928874224e-13 0 0)
(-3.568249790418732e-13 0 0)
(-2.436853515408327e-13 0 0)
(-2.349823032715102e-13 0 0)
(-1.91467061924941e-13 0 0)
(-2.088731584635401e-13 0 0)
(-2.001701101942682e-13 0 0)
(-1.392487723090423e-13 0 0)
(-1.566548688476914e-13 0 0)
(-2.088731584635477e-13 0 0)
(-1.131396275011218e-13 0 0)
(7.832743442379843e-14 0 0)
(-8.703048269343578e-15 0 0)
(9.573353096243527e-14 0 0)
(5.22182896158701e-14 0 0)
(8.703048269315061e-14 0 0)
(8.703048269335503e-15 0 0)
(-5.22182896158463e-14 0 0)
(3.14798534588904e-26 0 0)
(1.392487723090424e-13 0 0)
(2.697944963487404e-13 0 0)
(1.653579171169629e-13 0 0)
(6.962438615451578e-14 0 0)
(3.481219307723821e-14 0 0)
(-8.703048269318387e-15 0 0)
(-5.221828961589245e-14 0 0)
(6.092133788519878e-14 0 0)
(-8.703048269328492e-15 0 0)
(-1.392487723090528e-13 0 0)
(-2.175762067328568e-13 0 0)
(-3.655280273112428e-13 0 0)
(-3.394188825032341e-13 0 0)
(-4.003402203884876e-13 0 0)
(-4.612615582736516e-13 0 0)
(-4.177463169271027e-13 0 0)
(-3.568249790418855e-13 0 0)
(-2.697944963487574e-13 0 0)
(-2.175762067328515e-13 0 0)
(-1.91467061924935e-13 0 0)
(-1.91467061924932e-13 0 0)
(-1.653579171169888e-13 0 0)
(-2.088731584635404e-13 0 0)
(-1.827640136555981e-13 0 0)
(-2.69794496348716e-13 0 0)
(-2.349823032714882e-13 0 0)
(1.740609653864909e-14 0 0)
(-3.481219307725332e-14 0 0)
(1.740609653863473e-14 0 0)
(4.351524134658016e-14 0 0)
(2.610914480796162e-14 0 0)
(-2.610914480792521e-14 0 0)
(-8.703048269308447e-15 0 0)
(-8.703048269321569e-15 0 0)
(-5.221828961589522e-14 0 0)
(-1.653579171169955e-13 0 0)
(-2.872005928873912e-13 0 0)
(-3.220127859646484e-13 0 0)
(-4.525585100043537e-13 0 0)
(-3.046066894260527e-13 0 0)
(-3.742310755805561e-13 0 0)
(-4.177463169271064e-13 0 0)
(-5.308859444282159e-13 0 0)
(-4.960737513509584e-13 0 0)
(-4.960737513509807e-13 0 0)
(-4.35152413465745e-13 0 0)
(-4.351524134657376e-13 0 0)
(-5.395889926975484e-13 0 0)
(-6.701347167372371e-13 0 0)
(-7.745712959689882e-13 0 0)
(-7.571651994303478e-13 0 0)
(-6.440255719292565e-13 0 0)
(-6.179164271213422e-13 0 0)
(-6.614316684678861e-13 0 0)
(-5.04776799620204e-13 0 0)
(-4.090432686578147e-13 0 0)
(-3.655280273112123e-13 0 0)
(-3.742310755805064e-13 0 0)
(-4.612615582736848e-13 0 0)
(-5.134798478895937e-13 0 0)
(-5.744011857747848e-13 0 0)
(-6.179164271213335e-13 0 0)
(-5.918072823133515e-13 0 0)
(-5.656981375054352e-13 0 0)
(-4.438554617350482e-13 0 0)
(-4.699646065429537e-13 0 0)
(-4.264493651964067e-13 0 0)
(-2.872005928873902e-13 0 0)
(-1.479518205783431e-13 0 0)
(-2.175762067328711e-13 0 0)
(-2.349823032715053e-13 0 0)
(-2.262792550021975e-13 0 0)
(-3.394188825033083e-13 0 0)
(-4.090432686577605e-13 0 0)
(-4.090432686577727e-13 0 0)
(-4.17746316927099e-13 0 0)
(-4.612615582736506e-13 0 0)
(-3.916371721191452e-13 0 0)
(-2.697944963487177e-13 0 0)
(-2.088731584635489e-13 0 0)
(-2.001701101942343e-13 0 0)
(-3.133097376952886e-13 0 0)
(-2.17576206732852e-13 0 0)
(-2.088731584635401e-13 0 0)
(-2.43685351540821e-13 0 0)
(-2.08873158463582e-13 0 0)
(-2.959036411567046e-13 0 0)
(-3.655280273112365e-13 0 0)
(-4.43855461735086e-13 0 0)
(-3.568249790418778e-13 0 0)
(-2.872005928873939e-13 0 0)
(-1.392487723090622e-13 0 0)
(-8.703048269316934e-14 0 0)
(1.131396275010501e-13 0 0)
(1.218426757703739e-13 0 0)
(2.523883998100997e-13 0 0)
(2.088731584635526e-13 0 0)
(2.43685351540795e-13 0 0)
(3.13309737695374e-13 0 0)
(4.0904326865777e-13 0 0)
(4.003402203884909e-13 0 0)
(4.699646065430122e-13 0 0)
(3.916371721192087e-13 0 0)
(3.568249790419223e-13 0 0)
(3.655280273112372e-13 0 0)
(3.742310755805216e-13 0 0)
(2.001701101942521e-13 0 0)
(1.131396275010868e-13 0 0)
(1.218426757704219e-13 0 0)
(5.221828961590026e-14 0 0)
(-2.610914480792031e-14 0 0)
(-9.573353096242912e-14 0 0)
(-1.131396275010612e-13 0 0)
(-9.57335309624332e-14 0 0)
(-1.653579171169745e-13 0 0)
(-1.740609653862758e-13 0 0)
(-1.131396275010754e-13 0 0)
(-6.092133788518691e-14 0 0)
(8.703048269313494e-15 0 0)
(8.703048269314312e-14 0 0)
(3.481219307725835e-14 0 0)
(6.092133788519885e-14 0 0)
(-1.044365792317909e-13 0 0)
(4.351524134655751e-14 0 0)
(5.221828961587686e-14 0 0)
(9.573353096244351e-14 0 0)
(-2.610914480795961e-14 0 0)
(3.481219307724357e-14 0 0)
(8.70304826931546e-15 0 0)
(-3.481219307723926e-14 0 0)
(-8.703048269314326e-14 0 0)
(-2.610914480793751e-14 0 0)
(-3.481219307724556e-14 0 0)
(1.532831170263559e-26 0 0)
(1.408766922746144e-26 0 0)
(-2.001701101942221e-13 0 0)
(-2.784975446180585e-13 0 0)
(-1.914670619249102e-13 0 0)
(-2.262792550022001e-13 0 0)
(-1.218426757704045e-13 0 0)
(8.70304826930411e-15 0 0)
(9.573353096244021e-14 0 0)
(-1.131396275011076e-13 0 0)
(-1.305457240397265e-13 0 0)
(-1.13139627501097e-13 0 0)
(-9.573353096248224e-14 0 0)
(-1.044365792318054e-13 0 0)
(-1.740609653865578e-14 0 0)
(5.221828961586861e-14 0 0)
(6.962438615449393e-14 0 0)
(-3.481219307727179e-14 0 0)
(-1.479518205783406e-13 0 0)
(-9.573353096245239e-14 0 0)
(-8.703048269314113e-14 0 0)
(-1.044365792317601e-13 0 0)
(-1.566548688476282e-13 0 0)
(-4.351524134655699e-14 0 0)
(-7.832743442381836e-14 0 0)
(-1.479518205783181e-13 0 0)
(-7.832743442380202e-14 0 0)
(-4.351524134654303e-14 0 0)
(4.351524134660167e-14 0 0)
(3.026433302760877e-26 0 0)
(-1.218426757703644e-13 0 0)
(-1.131396275010674e-13 0 0)
(-2.610914480793786e-14 0 0)
(5.221828961588282e-14 0 0)
(1.131396275010949e-13 0 0)
(3.481219307725761e-14 0 0)
(6.962438615452401e-14 0 0)
(6.962438615452424e-14 0 0)
(6.092133788520643e-14 0 0)
(9.573353096246507e-14 0 0)
(9.573353096244697e-14 0 0)
(1.8276401365557e-13 0 0)
(2.523883998101176e-13 0 0)
(2.088731584635604e-13 0 0)
(3.046066894260155e-13 0 0)
(3.829341238498222e-13 0 0)
(4.264493651963665e-13 0 0)
(4.003402203884643e-13 0 0)
(2.175762067328441e-13 0 0)
(-1.740609653865656e-14 0 0)
(-7.832743442386742e-14 0 0)
(-5.221828961592894e-14 0 0)
(-1.479518205783821e-13 0 0)
(-1.392487723090739e-13 0 0)
(-5.221828961592953e-14 0 0)
(-1.13139627501117e-13 0 0)
(-1.305457240397201e-13 0 0)
(-2.610914480793586e-14 0 0)
(6.962438615450722e-14 0 0)
(6.092133788519563e-14 0 0)
(8.703048269314507e-15 0 0)
(6.723045437906307e-27 0 0)
(-1.740609653861066e-14 0 0)
(4.351524134659876e-14 0 0)
(3.140255486230568e-27 0 0)
(-9.573353096246987e-14 0 0)
(-2.610914480796952e-14 0 0)
(-2.610914480796561e-14 0 0)
(-1.392487723090619e-13 0 0)
(-1.56654868847707e-13 0 0)
(-1.044365792318196e-13 0 0)
(2.61091448079088e-14 0 0)
(-1.740609653865557e-14 0 0)
(-1.392487723090375e-13 0 0)
(-2.872005928873806e-13 0 0)
(-2.262792550021698e-13 0 0)
(-2.001701101942173e-13 0 0)
(-1.305457240396895e-13 0 0)
(-3.481219307720646e-14 0 0)
(-5.22182896158222e-14 0 0)
(-5.221828961583777e-14 0 0)
(-8.703048269280313e-15 0 0)
(1.044365792318019e-13 0 0)
(2.784975446180807e-13 0 0)
(3.568249790419155e-13 0 0)
(3.568249790419069e-13 0 0)
(2.959036411566904e-13 0 0)
(3.307158342339681e-13 0 0)
(2.262792550022016e-13 0 0)
(1.827640136556095e-13 0 0)
(1.740609653865238e-14 0 0)
(8.703048269324546e-15 0 0)
(7.832743442384657e-14 0 0)
(1.653579171169876e-13 0 0)
(2.523883998101121e-13 0 0)
(1.305457240397352e-13 0 0)
(9.573353096247412e-14 0 0)
(2.088731584635282e-13 0 0)
(1.740609653862817e-13 0 0)
(1.653579171169722e-13 0 0)
(1.305457240397044e-13 0 0)
(6.962438615449938e-14 0 0)
(4.351524134654959e-14 0 0)
(-4.351524134658866e-14 0 0)
(-1.479518205783401e-13 0 0)
(-2.088731584635438e-13 0 0)
(-1.65357917116972e-13 0 0)
(-1.740609653863016e-13 0 0)
(-2.872005928873669e-13 0 0)
(-2.175762067328751e-13 0 0)
(-1.392487723090316e-13 0 0)
(-3.481219307728623e-14 0 0)
(-3.4812193077289e-14 0 0)
(-1.305457240397443e-13 0 0)
(-5.221828961593351e-14 0 0)
(2.610914480791114e-14 0 0)
(1.131396275010594e-13 0 0)
(-2.610914480795534e-14 0 0)
(8.703048269318361e-15 0 0)
(-1.740609653862422e-14 0 0)
(-3.481219307724989e-14 0 0)
(-6.092133788520855e-14 0 0)
(-2.262792550021912e-13 0 0)
(-1.740609653862951e-13 0 0)
(-2.87200592887401e-13 0 0)
(-1.914670619249613e-13 0 0)
(-6.962438615454759e-14 0 0)
(-6.092133788524194e-14 0 0)
(-8.703048269319318e-14 0 0)
(-3.481219307730792e-14 0 0)
(2.610914480790193e-14 0 0)
(-8.70304826933887e-15 0 0)
(-7.832743442386414e-14 0 0)
(8.703048269296191e-15 0 0)
(1.305457240397141e-13 0 0)
(1.044365792317838e-13 0 0)
(2.523883998101389e-13 0 0)
(3.0460668942601e-13 0 0)
(3.046066894260347e-13 0 0)
(4.43855461735027e-13 0 0)
(4.612615582736884e-13 0 0)
(5.744011857747815e-13 0 0)
(7.223530063530852e-13 0 0)
(7.745712959690222e-13 0 0)
(8.006804407770152e-13 0 0)
(7.571651994304082e-13 0 0)
(7.223530063531842e-13 0 0)
(7.745712959689953e-13 0 0)
(9.486322613553689e-13 0 0)
(9.747414061632554e-13 0 0)
(1.018256647509748e-12 0 0)
(8.790078752008401e-13 0 0)
(8.616017786622136e-13 0 0)
(8.616017786621478e-13 0 0)
(8.006804407769769e-13 0 0)
(7.136499580837273e-13 0 0)
(5.831042340440948e-13 0 0)
(6.005103305827022e-13 0 0)
(5.482920409667569e-13 0 0)
(5.221828961589069e-13 0 0)
(4.351524134657421e-13 0 0)
(3.133097376953434e-13 0 0)
(3.046066894260026e-13 0 0)
(2.349823032714695e-13 0 0)
(2.95903641156696e-13 0 0)
(2.262792550021784e-13 0 0)
(3.307158342339132e-13 0 0)
(4.786676548123015e-13 0 0)
(5.134798478895255e-13 0 0)
(5.569950892361458e-13 0 0)
(4.873707030816147e-13 0 0)
(4.351524134656941e-13 0 0)
(4.351524134657502e-13 0 0)
(4.960737513509364e-13 0 0)
(3.220127859646218e-13 0 0)
(3.568249790418813e-13 0 0)
(4.525585100043604e-13 0 0)
(4.438554617350505e-13 0 0)
(2.784975446180564e-13 0 0)
(9.573353096244796e-14 0 0)
(3.481219307725069e-14 0 0)
(-1.218426757704097e-13 0 0)
(-1.218426757703898e-13 0 0)
(-1.827640136555948e-13 0 0)
(-1.131396275010966e-13 0 0)
(4.351524134656493e-14 0 0)
(-1.135902876803917e-26 0 0)
(5.221828961587105e-14 0 0)
(3.481219307725824e-14 0 0)
(1.044365792317813e-13 0 0)
(-1.740609653861221e-14 0 0)
(1.392487723090493e-13 0 0)
(1.566548688476852e-13 0 0)
(1.740609653863097e-13 0 0)
(1.827640136556125e-13 0 0)
(2.959036411566469e-13 0 0)
(4.090432686577859e-13 0 0)
(3.916371721191709e-13 0 0)
(4.612615582736261e-13 0 0)
(2.0887315846358e-13 0 0)
(1.21842675770429e-13 0 0)
(6.962438615453756e-14 0 0)
(8.703048269317163e-14 0 0)
(1.0443657923177e-13 0 0)
(8.703048269315981e-14 0 0)
(1.740609653862424e-14 0 0)
(6.962438615449503e-14 0 0)
(1.740609653862468e-14 0 0)
(3.481219307726874e-14 0 0)
(6.092133788522073e-14 0 0)
(1.740609653862944e-13 0 0)
(2.784975446180482e-13 0 0)
(4.090432686577885e-13 0 0)
(4.525585100043865e-13 0 0)
(4.960737513509209e-13 0 0)
(5.047767996202953e-13 0 0)
(6.26619475390675e-13 0 0)
(6.005103305827582e-13 0 0)
(6.353225236599774e-13 0 0)
(5.918072823133431e-13 0 0)
(6.614316684679505e-13 0 0)
(6.962438615451992e-13 0 0)
(6.266194753906407e-13 0 0)
(6.179164271213807e-13 0 0)
(5.744011857748381e-13 0 0)
(5.918072823134188e-13 0 0)
(4.96073751350983e-13 0 0)
(4.351524134657262e-13 0 0)
(3.742310755805425e-13 0 0)
(3.481219307726198e-13 0 0)
(2.697944963487467e-13 0 0)
(1.914670619249195e-13 0 0)
(2.001701101942267e-13 0 0)
(1.740609653862831e-13 0 0)
(2.959036411567119e-13 0 0)
(4.177463169270812e-13 0 0)
(3.742310755805462e-13 0 0)
(4.003402203884665e-13 0 0)
(5.134798478895255e-13 0 0)
(6.527286201986642e-13 0 0)
(6.875408132758225e-13 0 0)
(5.308859444282041e-13 0 0)
(3.829341238498878e-13 0 0)
(2.872005928874139e-13 0 0)
(2.784975446181137e-13 0 0)
(2.26279255002204e-13 0 0)
(8.703048269317312e-14 0 0)
(6.962438615452706e-14 0 0)
(-6.962438615452449e-14 0 0)
(-1.740609653863136e-13 0 0)
(-2.436853515408315e-13 0 0)
(-5.047767996202363e-13 0 0)
(-4.438554617350992e-13 0 0)
(-3.65528027311259e-13 0 0)
(-4.264493651964686e-13 0 0)
(-3.655280273112552e-13 0 0)
(-2.959036411566911e-13 0 0)
(-3.307158342340054e-13 0 0)
(-1.653579171170015e-13 0 0)
(-6.092133788522067e-14 0 0)
(-1.740609653863218e-13 0 0)
(-1.305457240397525e-13 0 0)
(-2.001701101942561e-13 0 0)
(-3.046066894260101e-13 0 0)
(-1.914670619248993e-13 0 0)
(-1.305457240397277e-13 0 0)
(6.092133788518631e-14 0 0)
(1.218426757703732e-13 0 0)
(1.740609653862874e-13 0 0)
(2.872005928873832e-13 0 0)
(3.916371721191618e-13 0 0)
(4.003402203884866e-13 0 0)
(3.481219307725683e-13 0 0)
(3.046066894260572e-13 0 0)
(2.610914480794815e-13 0 0)
(2.001701101942719e-13 0 0)
(1.91467061924973e-13 0 0)
(3.133097376953753e-13 0 0)
(3.568249790419384e-13 0 0)
(4.264493651964501e-13 0 0)
(2.959036411567228e-13 0 0)
(3.742310755805473e-13 0 0)
(3.046066894260651e-13 0 0)
(2.784975446180875e-13 0 0)
(2.610914480794844e-13 0 0)
(9.573353096249417e-14 0 0)
(7.832743442386158e-14 0 0)
(2.610914480796937e-14 0 0)
(2.009763511187653e-26 0 0)
(-7.832743442381397e-14 0 0)
(4.351524134657066e-14 0 0)
(8.703048269309616e-15 0 0)
(-8.703048269314903e-14 0 0)
(-2.523883998101246e-13 0 0)
(-3.220127859646595e-13 0 0)
(-3.742310755805486e-13 0 0)
(-3.133097376953134e-13 0 0)
(-1.827640136556228e-13 0 0)
(-2.872005928874263e-13 0 0)
(-3.48121930772574e-13 0 0)
(-4.786676548123232e-13 0 0)
(-5.744011857747807e-13 0 0)
(-4.699646065430075e-13 0 0)
(-3.916371721191799e-13 0 0)
(-4.264493651963941e-13 0 0)
(-3.742310755805716e-13 0 0)
(-2.349823032715106e-13 0 0)
(-1.653579171169883e-13 0 0)
(-2.697944963487801e-13 0 0)
(-1.566548688476906e-13 0 0)
(-3.133097376953424e-13 0 0)
(-2.349823032715168e-13 0 0)
(-2.349823032715251e-13 0 0)
(-1.566548688477012e-13 0 0)
(-1.305457240397841e-13 0 0)
(-1.305457240397436e-13 0 0)
(-1.740609653863269e-13 0 0)
(-1.740609653863297e-13 0 0)
(-1.305457240397597e-13 0 0)
(8.703048269279652e-15 0 0)
(1.044365792317404e-13 0 0)
(2.610914480791532e-14 0 0)
(8.703048269284827e-15 0 0)
(1.740609653861737e-14 0 0)
(-7.832743442383327e-14 0 0)
(-1.131396275010801e-13 0 0)
(-2.784975446180653e-13 0 0)
(-3.742310755805024e-13 0 0)
(-3.133097376952865e-13 0 0)
(-2.088731584635113e-13 0 0)
(-2.697944963487484e-13 0 0)
(-3.220127859645749e-13 0 0)
(-1.740609653862505e-13 0 0)
(-8.703048269309965e-14 0 0)
(4.351524134661653e-14 0 0)
(-1.74060965385946e-14 0 0)
(-1.131396275010535e-13 0 0)
(-2.262792550021731e-13 0 0)
(-2.175762067328155e-13 0 0)
(-3.307158342338921e-13 0 0)
(-4.69964606542943e-13 0 0)
(-4.177463169270861e-13 0 0)
(-4.612615582736404e-13 0 0)
(-4.264493651963829e-13 0 0)
(-4.090432686577669e-13 0 0)
(-4.351524134656767e-13 0 0)
(-5.744011857748e-13 0 0)
(-5.13479847889508e-13 0 0)
(-4.351524134657465e-13 0 0)
(-4.003402203884889e-13 0 0)
(-3.394188825032773e-13 0 0)
(-4.612615582737078e-13 0 0)
(-2.872005928874163e-13 0 0)
(-3.133097376953577e-13 0 0)
(-1.653579171169858e-13 0 0)
(-1.827640136556407e-13 0 0)
(-1.044365792318134e-13 0 0)
(-2.610914480796326e-14 0 0)
(-1.218426757704244e-13 0 0)
(-1.044365792317998e-13 0 0)
(-3.568249790419199e-13 0 0)
(-2.784975446180416e-13 0 0)
(-2.784975446180975e-13 0 0)
(-3.307158342339883e-13 0 0)
(-4.612615582737997e-13 0 0)
(-5.482920409668393e-13 0 0)
(-6.266194753906985e-13 0 0)
(-7.136499580836803e-13 0 0)
(-5.308859444281925e-13 0 0)
(-5.744011857747644e-13 0 0)
(-5.395889926975154e-13 0 0)
(-6.962438615451463e-13 0 0)
(-6.875408132758373e-13 0 0)
(-6.527286201986061e-13 0 0)
(-6.875408132757363e-13 0 0)
(-7.658682476997047e-13 0 0)
(-7.919773925076789e-13 0 0)
(-7.832743442383745e-13 0 0)
(-7.745712959690297e-13 0 0)
(-8.006804407769803e-13 0 0)
(-9.57335309624663e-13 0 0)
(-9.2252311654738e-13 0 0)
(-9.48632261355297e-13 0 0)
(-9.13820068277889e-13 0 0)
(-8.616017786621893e-13 0 0)
(-8.267895855848952e-13 0 0)
(-6.701347167372512e-13 0 0)
(-6.875408132758964e-13 0 0)
(-7.136499580838261e-13 0 0)
(-7.919773925076512e-13 0 0)
(-8.006804407767908e-13 0 0)
(-6.788377650065609e-13 0 0)
(-6.179164271213121e-13 0 0)
(-6.875408132758557e-13 0 0)
(-7.484621511610488e-13 0 0)
(-6.962438615451566e-13 0 0)
(-7.919773925076451e-13 0 0)
(-8.006804407769233e-13 0 0)
(-8.267895855849387e-13 0 0)
(-7.484621511609396e-13 0 0)
(-7.919773925076686e-13 0 0)
(-7.832743442383464e-13 0 0)
(-8.180865373156595e-13 0 0)
(-8.703048269314823e-13 0 0)
(-8.528987303928381e-13 0 0)
(-1.026959695779156e-12 0 0)
(-1.087881033664176e-12 0 0)
(-1.157505419818873e-12 0 0)
(-1.14880237154955e-12 0 0)
(-1.105287130202983e-12 0 0)
(-1.06177188885641e-12 0 0)
(-9.834444544325701e-13 0 0)
(-9.486322613553358e-13 0 0)
(-8.006804407769961e-13 0 0)
(-6.962438615451787e-13 0 0)
(-6.092133788519064e-13 0 0)
(-5.569950892361508e-13 0 0)
(-5.395889926974852e-13 0 0)
(-3.916371721191646e-13 0 0)
(-3.655280273112103e-13 0 0)
(-2.436853515407956e-13 0 0)
(-2.697944963487492e-13 0 0)
(-2.872005928873279e-13 0 0)
(-3.481219307725588e-13 0 0)
(-3.829341238498033e-13 0 0)
(-4.786676548122923e-13 0 0)
(-4.35152413465713e-13 0 0)
(-4.003402203884528e-13 0 0)
(-3.481219307725874e-13 0 0)
(-2.697944963487239e-13 0 0)
(-3.829341238498286e-13 0 0)
(-1.827640136555648e-13 0 0)
(-5.221828961588726e-14 0 0)
(7.832743442383815e-14 0 0)
(8.703048269330855e-15 0 0)
(-1.30545724039711e-13 0 0)
(-9.573353096244943e-14 0 0)
(-2.610914480794405e-14 0 0)
(1.305457240396875e-13 0 0)
(6.092133788518312e-14 0 0)
(8.703048269298156e-15 0 0)
(-3.481219307727989e-14 0 0)
(-7.832743442386208e-14 0 0)
(-7.832743442386068e-14 0 0)
(-4.351524134660241e-14 0 0)
(5.221828961585326e-14 0 0)
(-6.962438615454876e-14 0 0)
(6.962438615447404e-14 0 0)
(3.481219307723201e-14 0 0)
(2.610914480790483e-14 0 0)
(5.221828961585715e-14 0 0)
(2.436853515408002e-13 0 0)
(4.351524134657366e-13 0 0)
(5.221828961589095e-13 0 0)
(7.658682476996131e-13 0 0)
(8.441956821235455e-13 0 0)
(1.026959695779161e-12 0 0)
(1.17491151635751e-12 0 0)
(1.418596867898207e-12 0 0)
(1.697094412516414e-12 0 0)
(2.019107198481066e-12 0 0)
(2.288901694829903e-12 0 0)
(2.419447418869291e-12 0 0)
(2.706648011757055e-12 0 0)
(3.054769942529478e-12 0 0)
(3.385485776763641e-12 0 0)
(3.724904659266391e-12 0 0)
(4.099135734847382e-12 0 0)
(4.316711941580391e-12 0 0)
(4.412445472542612e-12 0 0)
(4.64742777581397e-12 0 0)
(4.708349113699328e-12 0 0)
(4.960737513509623e-12 0 0)
(5.012955803125525e-12 0 0)
(5.247938106396562e-12 0 0)
(5.474217361399236e-12 0 0)
(5.604763085438965e-12 0 0)
(5.822339292171835e-12 0 0)
(6.135649029867162e-12 0 0)
(6.631722781217534e-12 0 0)
(6.849298987951001e-12 0 0)
(7.441106270264668e-12 0 0)
(7.989398311231077e-12 0 0)
(8.711751317583956e-12 0 0)
(9.468916517014608e-12 0 0)
(1.017386342682942e-11 0 0)
(1.077437375741217e-11 0 0)
(1.100065301241343e-11 0 0)
(1.122693226741664e-11 0 0)
(1.127915055703257e-11 0 0)
(1.14096962810723e-11 0 0)
(1.142710237760995e-11 0 0)
(1.16272724878052e-11 0 0)
(1.16881938256904e-11 0 0)
(1.180133345319182e-11 0 0)
(1.183614564626768e-11 0 0)
(1.181003650146044e-11 0 0)
(1.201020661165536e-11 0 0)
(1.203631575646261e-11 0 0)
(1.235832854242651e-11 0 0)
(1.239314073550484e-11 0 0)
(1.239314073550481e-11 0 0)
(1.25759047491604e-11 0 0)
(1.269774742493085e-11 0 0)
(1.283699619723909e-11 0 0)
(1.283699619723949e-11 0 0)
(1.304586935570379e-11 0 0)
(1.29762449695485e-11 0 0)
(1.291532363166253e-11 0 0)
(1.292402667993338e-11 0 0)
(1.295013582474052e-11 0 0)
(1.281959010070116e-11 0 0)
(1.279348095589204e-11 0 0)
(1.272385656973863e-11 0 0)
(1.268034132839203e-11 0 0)
(1.276737181108517e-11 0 0)
(1.264552913531363e-11 0 0)
(1.269774742493064e-11 0 0)
(1.264552913531475e-11 0 0)
(1.251498341127499e-11 0 0)
(1.240184378377319e-11 0 0)
(1.234092244588832e-11 0 0)
(1.240184378377394e-11 0 0)
(1.223648586665699e-11 0 0)
(1.224518891492556e-11 0 0)
(1.224518891492593e-11 0 0)
(1.241054683204328e-11 0 0)
(1.265423218358411e-11 0 0)
(1.280218400416247e-11 0 0)
(1.289791753512377e-11 0 0)
(1.29066205833943e-11 0 0)
(1.288051143858669e-11 0 0)
(1.268034132839171e-11 0 0)
(1.277607485935345e-11 0 0)
(1.277607485935494e-11 0 0)
(1.295883887301029e-11 0 0)
(1.321993032108933e-11 0 0)
(1.328955470724263e-11 0 0)
(1.347231872090026e-11 0 0)
(1.361156749320895e-11 0 0)
(1.382044065167252e-11 0 0)
(1.377692541032513e-11 0 0)
(1.390747113436527e-11 0 0)
(1.398579856878957e-11 0 0)
(1.400320466532856e-11 0 0)
(1.396839247224963e-11 0 0)
(1.400320466532771e-11 0 0)
(1.411634429282927e-11 0 0)
(1.39945016170584e-11 0 0)
(1.420337477552193e-11 0 0)
(1.448187232014052e-11 0 0)
(1.492572778187515e-11 0 0)
)
;

boundaryField
{
    inlet
    {
        type            zeroGradient;
    }
    outlet
    {
        type            velocityOutletNSCBCx;
        pInf            101325;
        gamma           1.4;
        etaAc           1;
        fieldInf        (-1 0 0);
        lInf            2.25;
        value           uniform (1.512759508932077e-11 0 0);
    }
    frontAndBack
    {
        type            empty;
    }
}


// ************************************************************************* //
