/*--------------------------------*- C++ -*----------------------------------*\
| =========                 |                                                 |
| \\      /  F ield         | OpenFOAM: The Open Source CFD Toolbox           |
|  \\    /   O peration     | Version:  v2012                                 |
|   \\  /    A nd           | Website:  www.openfoam.com                      |
|    \\/     M anipulation  |                                                 |
\*---------------------------------------------------------------------------*/
FoamFile
{
    version     2.0;
    format      ascii;
    class       volVectorField;
    location    "0.002";
    object      UMean;
}
// * * * * * * * * * * * * * * * * * * * * * * * * * * * * * * * * * * * * * //

dimensions      [0 1 -1 0 0 0 0];


internalField   nonuniform List<vector> 
1000
(
(-0.0001091927142026834 0 0)
(0.0001021683737581223 0 0)
(0.0001776771870568606 0 0)
(0.0003659843726638544 0 0)
(0.0005854664419918981 0 0)
(0.0008599002029322878 0 0)
(0.00118012649861811 0 0)
(0.001536803992275668 0 0)
(0.00192842340113546 0 0)
(0.002344705528402042 0 0)
(0.002776078870277552 0 0)
(0.003207717307697712 0 0)
(0.003639282725523083 0 0)
(0.004063406757130213 0 0)
(0.004476943992020233 0 0)
(0.004867553068617528 0 0)
(0.005230276128595198 0 0)
(0.005554288125378424 0 0)
(0.005836917576262617 0 0)
(0.006070151029127774 0 0)
(0.00625292950672811 0 0)
(0.0063791106292165 0 0)
(0.006449107363022255 0 0)
(0.006458829385525168 0 0)
(0.006410623800939408 0 0)
(0.006302879506387721 0 0)
(0.006140143914514609 0 0)
(0.005922981330212751 0 0)
(0.005656968247183311 0 0)
(0.005343086519431335 0 0)
(0.004986897399145022 0 0)
(0.00459279428325757 0 0)
(0.004176352787387307 0 0)
(0.003751881404697226 0 0)
(0.003328167683764209 0 0)
(0.002905253036582215 0 0)
(0.00248678759059693 0 0)
(0.002077237691722079 0 0)
(0.001683927818564241 0 0)
(0.001314998919165853 0 0)
(0.0009795044736212258 0 0)
(0.0006851799555644897 0 0)
(0.000438799300119719 0 0)
(0.0002448446730684334 0 0)
(0.0001068188064021608 0 0)
(2.657401898600033e-05 0 0)
(5.454475003278675e-06 0 0)
(4.350310207126547e-05 0 0)
(0.0001401629171507798 0 0)
(0.0002937284334925357 0 0)
(0.0005020771614115823 0 0)
(0.0007627868838375352 0 0)
(0.001073508723227635 0 0)
(0.001430463414974003 0 0)
(0.001824605344432493 0 0)
(0.002239017152360267 0 0)
(0.002658229917653685 0 0)
(0.003077248028731249 0 0)
(0.00349528575384139 0 0)
(0.003909193328262808 0 0)
(0.004315745750976986 0 0)
(0.004707878820962584 0 0)
(0.005079157796705138 0 0)
(0.005420115736030002 0 0)
(0.005723464757843174 0 0)
(0.005980582033974032 0 0)
(0.006186575314148094 0 0)
(0.006336174400622762 0 0)
(0.006427997493185448 0 0)
(0.006459951094245533 0 0)
(0.006433111607501709 0 0)
(0.006347338363114 0 0)
(0.006204987931034184 0 0)
(0.006006654157221421 0 0)
(0.005754791315976767 0 0)
(0.005450349928374448 0 0)
(0.005098283607193423 0 0)
(0.004707950810926544 0 0)
(0.004298068020460711 0 0)
(0.003883202206705389 0 0)
(0.003468793423498962 0 0)
(0.003055249807427119 0 0)
(0.002644863642259752 0 0)
(0.002241128495546478 0 0)
(0.001849260105549695 0 0)
(0.001475959129307111 0 0)
(0.001129044125341809 0 0)
(0.0008168237573535795 0 0)
(0.0005473417296387389 0 0)
(0.0003276141002032365 0 0)
(0.0001630928179524418 0 0)
(5.735118546874696e-05 0 0)
(1.217692969274101e-05 0 0)
(2.781177734800702e-05 0 0)
(0.0001035131771032375 0 0)
(0.0002379741868820344 0 0)
(0.0004298309004725723 0 0)
(0.0006777212382849644 0 0)
(0.0009798140423568397 0 0)
(0.001331370454398951 0 0)
(0.001720501930971145 0 0)
(0.002127982652237982 0 0)
(0.002539171257559624 0 0)
(0.002950157041109858 0 0)
(0.003360337541383121 0 0)
(0.003767290061917321 0 0)
(0.004168431501725481 0 0)
(0.004558291973852453 0 0)
(0.004931451937645067 0 0)
(0.00527992874224944 0 0)
(0.005596530848287186 0 0)
(0.005872619189649016 0 0)
(0.006101643071969642 0 0)
(0.00627692846952811 0 0)
(0.006394898269531687 0 0)
(0.006452398010031096 0 0)
(0.006449305003448234 0 0)
(0.006385368545890924 0 0)
(0.006262389233098395 0 0)
(0.006080969393874075 0 0)
(0.00584298857132306 0 0)
(0.005549563451423397 0 0)
(0.005205917396012054 0 0)
(0.004822898757550715 0 0)
(0.004420132719763979 0 0)
(0.004012510128343044 0 0)
(0.003605183812224205 0 0)
(0.003198511618172415 0 0)
(0.002794305434118373 0 0)
(0.002395314534515974 0 0)
(0.002005784163407282 0 0)
(0.001631232493971361 0 0)
(0.001278440715992748 0 0)
(0.0009549482787899738 0 0)
(0.0006687060026536862 0 0)
(0.0004273122378883086 0 0)
(0.0002375409405004851 0 0)
(0.0001046610914634981 0 0)
(3.225918329386804e-05 0 0)
(2.208843619333013e-05 0 0)
(7.450358206170731e-05 0 0)
(0.0001888214925409213 0 0)
(0.0003639775047066877 0 0)
(0.0005985997147238745 0 0)
(0.0008905352435608716 0 0)
(0.001234205737876785 0 0)
(0.001616544966268947 0 0)
(0.002017442046160857 0 0)
(0.002422107890472013 0 0)
(0.002826652856268005 0 0)
(0.003230550756811148 0 0)
(0.003631890561753621 0 0)
(0.004028484964587522 0 0)
(0.004415858984100111 0 0)
(0.004789343685885057 0 0)
(0.005142090585363513 0 0)
(0.005467478420492698 0 0)
(0.005757415400774242 0 0)
(0.006004981429223783 0 0)
(0.006202895613617224 0 0)
(0.006346115781916914 0 0)
(0.006430095753857213 0 0)
(0.006452983595450228 0 0)
(0.006413385550115451 0 0)
(0.00631203508758823 0 0)
(0.006149216540025574 0 0)
(0.005926590184722197 0 0)
(0.005645647834643538 0 0)
(0.005311943249580656 0 0)
(0.004937004315540248 0 0)
(0.004540928247372601 0 0)
(0.004139453796323746 0 0)
(0.003738101147293628 0 0)
(0.003337223983126032 0 0)
(0.002938258565671844 0 0)
(0.002543478817546618 0 0)
(0.002156391659917831 0 0)
(0.001781733854830274 0 0)
(0.001425368349039497 0 0)
(0.001094110342778969 0 0)
(0.0007953685424093889 0 0)
(0.0005367099091563534 0 0)
(0.0003253458431111247 0 0)
(0.00016758431363229 0 0)
(6.842638703374874e-05 0 0)
(3.128433530225764e-05 0 0)
(5.806972251752734e-05 0 0)
(0.0001493848486933832 0 0)
(0.0003049746338253603 0 0)
(0.0005238087595043645 0 0)
(0.0008035589638607339 0 0)
(0.001138024518979209 0 0)
(0.001513199109173733 0 0)
(0.001908065915386292 0 0)
(0.002307138848813051 0 0)
(0.002706185824448913 0 0)
(0.00310472780258375 0 0)
(0.003501188645661892 0 0)
(0.003893752840244028 0 0)
(0.004278614760993814 0 0)
(0.004651753175545384 0 0)
(0.005007153898403357 0 0)
(0.005338835336444618 0 0)
(0.005639296233330271 0 0)
(0.00590174898905205 0 0)
(0.006118759597676483 0 0)
(0.006284525332696508 0 0)
(0.006393472852407539 0 0)
(0.006442305413404524 0 0)
(0.006428277716790482 0 0)
(0.006350765097992101 0 0)
(0.006209197323227516 0 0)
(0.006004613675004693 0 0)
(0.005738458960478861 0 0)
(0.005416316428307667 0 0)
(0.005050081079253247 0 0)
(0.004660378624485368 0 0)
(0.00426429032132312 0 0)
(0.003868101604255371 0 0)
(0.003472262659193147 0 0)
(0.003077926009877057 0 0)
(0.002686989593702706 0 0)
(0.002302399525862896 0 0)
(0.00192825551153887 0 0)
(0.001569672352674958 0 0)
(0.001232794669548404 0 0)
(0.000924431946250074 0 0)
(0.000651877414316993 0 0)
(0.0004223562707987159 0 0)
(0.0002427144318593783 0 0)
(0.0001188377546603848 0 0)
(5.548099326611711e-05 0 0)
(5.597700166688702e-05 0 0)
(0.0001224311499229696 0 0)
(0.0002557351732573371 0 0)
(0.0004557550386390085 0 0)
(0.0007204892728097656 0 0)
(0.001043746790782431 0 0)
(0.001410936472873421 0 0)
(0.00180002510065504 0 0)
(0.002194088716017515 0 0)
(0.002588287502427298 0 0)
(0.002982070798624903 0 0)
(0.003374203700816056 0 0)
(0.003763089631888366 0 0)
(0.00414550444945679 0 0)
(0.004517879571145807 0 0)
(0.004874949734319963 0 0)
(0.005211256908643929 0 0)
(0.005519952001665098 0 0)
(0.005794491595313041 0 0)
(0.006027599628074705 0 0)
(0.006213069473708852 0 0)
(0.006344739074765646 0 0)
(0.006418206612063009 0 0)
(0.006429586076981277 0 0)
(0.006376887875665743 0 0)
(0.006258468249962692 0 0)
(0.006074387966672735 0 0)
(0.005825551624744753 0 0)
(0.00551708555418097 0 0)
(0.005160793323454742 0 0)
(0.004777826888474464 0 0)
(0.004387002798905595 0 0)
(0.003995816834625673 0 0)
(0.003604862087096263 0 0)
(0.003215121141387408 0 0)
(0.002828174205253774 0 0)
(0.002446611865541198 0 0)
(0.002074012133024549 0 0)
(0.00171495363060203 0 0)
(0.001374924936812117 0 0)
(0.001060137999340177 0 0)
(0.0007772234756060618 0 0)
(0.0005327889450783121 0 0)
(0.0003328003317444174 0 0)
(0.0001816698048778097 0 0)
(8.075338002782089e-05 0 0)
(2.587659065705951e-05 0 0)
(4.87899220924647e-06 0 0)
(3.996226288079486e-07 0 0)
(9.677666827883983e-09 0 0)
(4.591915118595563e-11 0 0)
(9.324425851079677e-14 0 0)
(5.746018324208163e-14 0 0)
(4.650613041319254e-14 0 0)
(3.543921384594416e-14 0 0)
(3.210973356423516e-14 0 0)
(3.980327839597719e-14 0 0)
(4.130812824080482e-14 0 0)
(2.377662754844188e-14 0 0)
(9.082395834366836e-14 0 0)
(-3.636720458360376e-14 0 0)
(6.966827760830736e-14 0 0)
(3.824826688945012e-15 0 0)
(6.174273509215461e-14 0 0)
(-1.010130458348192e-14 0 0)
(2.207113105762161e-14 0 0)
(-9.988440845116536e-15 0 0)
(-7.273440916782997e-16 0 0)
(1.412050771072933e-14 0 0)
(1.609562313207333e-14 0 0)
(1.973234359043147e-14 0 0)
(1.613324437818936e-14 0 0)
(1.891094638346221e-14 0 0)
(3.21975164718455e-14 0 0)
(3.913863638116536e-14 0 0)
(4.308259701617021e-14 0 0)
(4.602332442120414e-15 0 0)
(6.346077199835677e-14 0 0)
(-3.771529923627335e-14 0 0)
(2.556363673918461e-14 0 0)
(-3.02224010505009e-15 0 0)
(1.445282871813931e-14 0 0)
(8.402078300352047e-15 0 0)
(5.461350895223492e-15 0 0)
(3.178995297215936e-15 0 0)
(1.774468775366127e-15 0 0)
(3.17899529721201e-15 0 0)
(5.392378610658077e-15 0 0)
(2.357598090244269e-15 0 0)
(4.790438672731558e-15 0 0)
(4.834330126541854e-15 0 0)
(-6.966200740065427e-15 0 0)
(-3.323837094787287e-14 0 0)
(2.166356755797752e-14 0 0)
(-7.770668386284585e-14 0 0)
(-1.870402952980352e-14 0 0)
(-4.726482554330009e-14 0 0)
(-4.476928288394035e-14 0 0)
(-4.078143079511755e-14 0 0)
(-2.802155815241984e-14 0 0)
(-2.892446805932678e-14 0 0)
(-3.216616543341164e-14 0 0)
(-3.191535712594433e-14 0 0)
(-4.576624590614207e-14 0 0)
(-4.237406354757258e-14 0 0)
(-4.507025285290363e-14 0 0)
(-4.208563399397713e-14 0 0)
(-3.673714683711383e-14 0 0)
(-5.161007947027085e-14 0 0)
(9.15450322273665e-16 0 0)
(-1.018156324186925e-13 0 0)
(-4.499501036067309e-14 0 0)
(-6.530421305830099e-14 0 0)
(-5.540355512079285e-14 0 0)
(-6.292153413730195e-14 0 0)
(-7.518606037274061e-14 0 0)
(-7.999530966853355e-14 0 0)
(-8.791458197699843e-14 0 0)
(-9.153876201998865e-14 0 0)
(-1.042547432088692e-13 0 0)
(-3.938944468865011e-14 0 0)
(-1.399510355699556e-13 0 0)
(-7.817694943935771e-14 0 0)
(-9.821026299876486e-14 0 0)
(-1.003358634045924e-13 0 0)
(-8.612757278624796e-14 0 0)
(-6.454551792819875e-14 0 0)
(-6.505340475083216e-14 0 0)
(-7.908612955394161e-14 0 0)
(-3.02725627120022e-14 0 0)
(-8.708691456233696e-14 0 0)
(-6.141041408478325e-14 0 0)
(-6.484648789716145e-14 0 0)
(-6.326012535239032e-14 0 0)
(-6.192457111509147e-14 0 0)
(-6.536064492747491e-14 0 0)
(-8.340630265015463e-14 0 0)
(-8.180112948232121e-14 0 0)
(-9.572726075477709e-14 0 0)
(-1.089573989739731e-13 0 0)
(-9.968376180515231e-14 0 0)
(-8.55193626406222e-14 0 0)
(-9.990948928189242e-14 0 0)
(-9.507515915534976e-14 0 0)
(-1.100484151114857e-13 0 0)
(-3.866837080465917e-14 0 0)
(-1.326964052763046e-13 0 0)
(-7.260900501345143e-14 0 0)
(-8.925013621428138e-14 0 0)
(-7.32422959898153e-14 0 0)
(-8.785187990012208e-14 0 0)
(-9.386500907177629e-14 0 0)
(-1.00411105896825e-13 0 0)
(-1.090201010508354e-13 0 0)
(-6.600647631921304e-14 0 0)
(-1.179300661738267e-13 0 0)
(-9.234134860387288e-14 0 0)
(-1.013641774652178e-13 0 0)
(-1.117037499408015e-13 0 0)
(-1.223380221776554e-13 0 0)
(-1.1726542415902e-13 0 0)
(-1.148827452380182e-13 0 0)
(-1.153906320606662e-13 0 0)
(-9.357030931051539e-14 0 0)
(-1.414809662455335e-13 0 0)
(-1.285079065414996e-13 0 0)
(-1.40828864646112e-13 0 0)
(-1.419888530681829e-13 0 0)
(-1.545919705187079e-13 0 0)
(-1.619594645507139e-13 0 0)
(-1.151649045839444e-13 0 0)
(-1.784689213901478e-13 0 0)
(-1.444342340660339e-13 0 0)
(-1.666746607312244e-13 0 0)
(-1.502529867994368e-13 0 0)
(-2.089421307481177e-13 0 0)
(-1.758228937462988e-13 0 0)
(-1.690761502752853e-13 0 0)
(-1.558773630945076e-13 0 0)
(-1.595328941759258e-13 0 0)
(-1.675399493919844e-13 0 0)
(-1.28257098234046e-13 0 0)
(-1.668941180002409e-13 0 0)
(-1.348533567205728e-13 0 0)
(-1.423023634525209e-13 0 0)
(-1.421079870142311e-13 0 0)
(-1.363393959423376e-13 0 0)
(-1.502279059686676e-13 0 0)
(-1.212532762478494e-13 0 0)
(-1.566172476015608e-13 0 0)
(-1.240560590838668e-13 0 0)
(-1.446286105043362e-13 0 0)
(-1.520086449517311e-13 0 0)
(-1.518268089288145e-13 0 0)
(-1.461961624260301e-13 0 0)
(-1.412426983534412e-13 0 0)
(-1.472620977327898e-13 0 0)
(-1.438385643358058e-13 0 0)
(-1.266581952738861e-13 0 0)
(-1.180805511583126e-13 0 0)
(-1.12406013201731e-13 0 0)
(-1.153028491530464e-13 0 0)
(-1.262130105281251e-13 0 0)
(-1.370730102417063e-13 0 0)
(-6.416303525929268e-14 0 0)
(-1.700417622590546e-13 0 0)
(-6.500324308932786e-14 0 0)
(-1.417443149683844e-13 0 0)
(-7.994514800703485e-14 0 0)
(-1.289029296257695e-13 0 0)
(-9.644833463875638e-14 0 0)
(-1.009315331348328e-13 0 0)
(-1.069822835526109e-13 0 0)
(-1.103431148727648e-13 0 0)
(-1.116034266178055e-13 0 0)
(-1.139798353311134e-13 0 0)
(-1.16613322559571e-13 0 0)
(-1.164252163289811e-13 0 0)
(-1.172779645743877e-13 0 0)
(-1.267898696353093e-13 0 0)
(-1.336055853908857e-13 0 0)
(-1.275736455961734e-13 0 0)
(-9.021574819805063e-14 0 0)
(-1.311790150160847e-13 0 0)
(-7.274067937487377e-14 0 0)
(-1.38928991717013e-13 0 0)
(-1.142181032232233e-13 0 0)
(-1.203064748871293e-13 0 0)
(-1.105249508956833e-13 0 0)
(-1.075716830751991e-13 0 0)
(-9.773999742224697e-14 0 0)
(-1.036402628555487e-13 0 0)
(-9.692487042295684e-14 0 0)
(-1.029630804253741e-13 0 0)
(-1.029944314638012e-13 0 0)
(-1.036966947247306e-13 0 0)
(-9.071109460531856e-14 0 0)
(-6.260802375295704e-14 0 0)
(-4.429901730741464e-14 0 0)
(-2.53943411316393e-14 0 0)
(-2.472342890915058e-14 0 0)
(-1.381326753407247e-14 0 0)
(-7.29852174745629e-15 0 0)
(7.806408570109989e-15 0 0)
(6.357990594450696e-15 0 0)
(1.72430711387813e-14 0 0)
(2.400235502517744e-14 0 0)
(1.87040295298087e-14 0 0)
(1.2509064335223e-14 0 0)
(1.684804805450401e-14 0 0)
(3.033526478886787e-14 0 0)
(2.355090007172337e-14 0 0)
(1.627745915500753e-14 0 0)
(3.554580737662016e-14 0 0)
(4.795454838884609e-14 0 0)
(5.697737725018973e-14 0 0)
(4.73087169970957e-14 0 0)
(4.977290861801062e-14 0 0)
(6.788126841757679e-14 0 0)
(7.896699560789106e-14 0 0)
(6.571804676562506e-14 0 0)
(7.17562567680311e-14 0 0)
(7.391320821229865e-14 0 0)
(7.694798873273032e-14 0 0)
(8.311787309656523e-14 0 0)
(8.659156815505471e-14 0 0)
(8.191399322069147e-14 0 0)
(5.49458299596516e-14 0 0)
(4.889507954186823e-14 0 0)
(4.332086490827579e-14 0 0)
(5.191104943922067e-14 0 0)
(6.087744643139336e-14 0 0)
(6.761791969474073e-14 0 0)
(6.334790826001095e-14 0 0)
(6.565534468876258e-14 0 0)
(7.235192649829247e-14 0 0)
(7.153052929131925e-14 0 0)
(7.543059847252354e-14 0 0)
(7.01260027694653e-14 0 0)
(7.988871613786236e-14 0 0)
(7.951250367664522e-14 0 0)
(8.780171823861404e-14 0 0)
(9.627276882352557e-14 0 0)
(1.09941821580806e-13 0 0)
(1.037029649324117e-13 0 0)
(1.072832535215857e-13 0 0)
(1.173720176896758e-13 0 0)
(1.323703544765817e-13 0 0)
(1.320129526384337e-13 0 0)
(1.272037033426263e-13 0 0)
(1.423650655293853e-13 0 0)
(1.544477557419026e-13 0 0)
(1.53883437050091e-13 0 0)
(1.56128171401978e-13 0 0)
(1.635144760570556e-13 0 0)
(1.788388636436773e-13 0 0)
(1.782808151595407e-13 0 0)
(1.820805610177353e-13 0 0)
(1.948905953219372e-13 0 0)
(1.997625466945996e-13 0 0)
(2.035936435912523e-13 0 0)
(2.103278466469027e-13 0 0)
(2.126791745294505e-13 0 0)
(2.162155716648359e-13 0 0)
(2.179022575325903e-13 0 0)
(2.216330311062322e-13 0 0)
(2.314960677976272e-13 0 0)
(2.411020259738368e-13 0 0)
(2.290130655536477e-13 0 0)
(2.145539666278163e-13 0 0)
(2.155885508961236e-13 0 0)
(2.182533891630517e-13 0 0)
(1.972544636198687e-13 0 0)
(2.176577194327725e-13 0 0)
(2.264987122712127e-13 0 0)
(2.104156295545124e-13 0 0)
(1.964205259975088e-13 0 0)
(1.908337709485463e-13 0 0)
(1.86845918859702e-13 0 0)
(1.949470271911114e-13 0 0)
(1.868396486520431e-13 0 0)
(1.918244637630592e-13 0 0)
(1.867769465751768e-13 0 0)
(1.752523048467987e-13 0 0)
(1.721172010033829e-13 0 0)
(1.677782172841054e-13 0 0)
(1.654268894015225e-13 0 0)
(1.467855619485978e-13 0 0)
(1.445596382197727e-13 0 0)
(1.410044304613357e-13 0 0)
(1.937055260691395e-13 0 0)
(1.497639105998279e-13 0 0)
(1.77841900621445e-13 0 0)
(1.727379515643724e-13 0 0)
(1.803938751499726e-13 0 0)
(1.880874199817288e-13 0 0)
(1.833659535935412e-13 0 0)
(1.810020852956153e-13 0 0)
(1.667812542618816e-13 0 0)
(2.021389554078902e-13 0 0)
(1.521215086900821e-13 0 0)
(1.735405381482887e-13 0 0)
(1.586174438536208e-13 0 0)
(1.557143376946412e-13 0 0)
(1.611129865129904e-13 0 0)
(1.497952616382754e-13 0 0)
(1.710449954889274e-13 0 0)
(1.397880101700881e-13 0 0)
(1.665680672005386e-13 0 0)
(1.558961737175557e-13 0 0)
(1.586299842690096e-13 0 0)
(1.67884810814773e-13 0 0)
(1.567990836244679e-13 0 0)
(1.597899726910738e-13 0 0)
(1.581785293155728e-13 0 0)
(1.935801219153757e-13 0 0)
(1.41355562091813e-13 0 0)
(1.713585058732743e-13 0 0)
(1.59714730198829e-13 0 0)
(1.621413005736428e-13 0 0)
(1.618340603969975e-13 0 0)
(1.733712425407473e-13 0 0)
(1.704054343048868e-13 0 0)
(1.555701229178417e-13 0 0)
(1.822122353791846e-13 0 0)
(1.192342693726951e-13 0 0)
(1.73277189425433e-13 0 0)
(1.632636677495935e-13 0 0)
(1.529805271432008e-13 0 0)
(1.490867281696704e-13 0 0)
(1.255170174748921e-13 0 0)
(1.442273172123603e-13 0 0)
(8.819674132290031e-14 0 0)
(1.254480451903319e-13 0 0)
(1.288903892103839e-13 0 0)
(1.298622714018654e-13 0 0)
(1.341072020058417e-13 0 0)
(1.360635068041328e-13 0 0)
(1.329660242068299e-13 0 0)
(1.220872138701815e-13 0 0)
(1.365902042498212e-13 0 0)
(7.417655693515173e-14 0 0)
(1.048504129390921e-13 0 0)
(9.395279197940279e-14 0 0)
(9.597179885455569e-14 0 0)
(8.743804619279559e-14 0 0)
(8.454748044916785e-14 0 0)
(9.5746071377828e-14 0 0)
(7.913629121543796e-14 0 0)
(1.369413358802834e-13 0 0)
(2.978348651242013e-14 0 0)
(8.547547118680868e-14 0 0)
(6.109690370043472e-14 0 0)
(5.394886693745735e-14 0 0)
(4.967258529504236e-14 0 0)
(5.968610697089931e-14 0 0)
(5.492074912891485e-14 0 0)
(4.114510284096094e-14 0 0)
(4.002273566501553e-14 0 0)
(5.026198481760795e-14 0 0)
(5.588009090500478e-14 0 0)
(5.954816240179535e-14 0 0)
(6.717273494897619e-14 0 0)
(6.373666113658724e-14 0 0)
(5.408054129888015e-14 0 0)
(8.034644129899876e-14 0 0)
(2.029666228226598e-14 0 0)
(5.723445576535556e-14 0 0)
(3.693152327541306e-14 0 0)
(3.926404053491242e-14 0 0)
(4.221103814771685e-14 0 0)
(4.967258529502558e-14 0 0)
(6.391222695181779e-14 0 0)
(6.0683069993107e-14 0 0)
(9.909436228259109e-14 0 0)
(-1.915548448324719e-14 0 0)
(3.7320276151995e-14 0 0)
(2.005212418247461e-14 0 0)
(1.114842926718289e-14 0 0)
(8.546293077146713e-15 0 0)
(5.850103771815014e-15 0 0)
(-3.398452566257773e-15 0 0)
(6.169884363836997e-15 0 0)
(5.260704249251034e-15 0 0)
(1.349975714974154e-14 0 0)
(8.088567916012426e-15 0 0)
(-3.291859035579743e-15 0 0)
(5.636916710452812e-15 0 0)
(2.240345206503072e-14 0 0)
(5.812482525696547e-15 0 0)
(3.478084203882687e-14 0 0)
(-2.61969277155583e-14 0 0)
(2.288625805694834e-15 0 0)
(-1.669756307001386e-14 0 0)
(-1.968845213663227e-14 0 0)
(-3.667444476024445e-14 0 0)
(-5.970491759396268e-14 0 0)
(-4.494484869916573e-14 0 0)
(-4.753444447381693e-14 0 0)
(2.407132730973367e-14 0 0)
(-8.191399322069102e-14 0 0)
(-6.715392432581898e-15 0 0)
(-1.61834060396926e-14 0 0)
(-1.131772487471894e-14 0 0)
(-2.10240063739279e-14 0 0)
(-2.142529966588224e-14 0 0)
(-2.51059115780502e-14 0 0)
(-3.311923700182059e-14 0 0)
(-2.892446805932994e-14 0 0)
(-3.074282828850571e-14 0 0)
(-3.543921384593458e-14 0 0)
(-4.370961778485575e-14 0 0)
(-4.267503351653658e-14 0 0)
(-5.579857820506169e-14 0 0)
(-5.240639584648672e-14 0 0)
(-5.661997541204507e-14 0 0)
(-6.188067966127809e-14 0 0)
(-6.463957104348451e-14 0 0)
(-7.145528679905914e-14 0 0)
(-6.359244635976948e-14 0 0)
(-5.552895927452528e-14 0 0)
(-6.590615299622366e-14 0 0)
(-6.231332399166933e-14 0 0)
(-5.915940952519621e-14 0 0)
(-5.987421320149926e-14 0 0)
(-7.667836980220354e-14 0 0)
(-6.495308142783674e-14 0 0)
(-1.056404591076498e-13 0 0)
(-8.273539042768457e-14 0 0)
(-1.016149857727103e-13 0 0)
(-9.30185310340714e-14 0 0)
(-8.738161432361052e-14 0 0)
(-8.151269992872797e-14 0 0)
(-8.071638355251544e-14 0 0)
(-8.780171823862273e-14 0 0)
(-2.402743585591635e-14 0 0)
(-1.290973060640639e-13 0 0)
(-5.834428252592051e-14 0 0)
(-7.786343905500841e-14 0 0)
(-7.340532138966854e-14 0 0)
(-6.742354325643152e-14 0 0)
(-6.425708837459457e-14 0 0)
(-6.361125698286159e-14 0 0)
(-7.139885492988972e-14 0 0)
(-7.681004416362212e-14 0 0)
(-6.492800059708695e-14 0 0)
(-5.234996397731535e-14 0 0)
(-4.040521833391162e-14 0 0)
(-3.029764354274453e-14 0 0)
(-2.202096939613621e-14 0 0)
(-3.685628078316223e-14 0 0)
(5.078868226384193e-16 0 0)
(-3.352680050145194e-14 0 0)
(-4.784168465042801e-15 0 0)
(-1.165631608980463e-14 0 0)
(-8.966396992153272e-15 0 0)
(-1.107945698261592e-14 0 0)
(-1.431488414902155e-14 0 0)
(-8.188891238989017e-15 0 0)
(-4.604213504434898e-14 0 0)
(-9.844226068244817e-16 0 0)
(-9.730735309184885e-14 0 0)
(-4.359048383881056e-14 0 0)
(-5.348487156862259e-14 0 0)
(-5.755423635736854e-14 0 0)
(-7.164966323735937e-14 0 0)
(-7.99200671762807e-14 0 0)
(-7.219517130610758e-14 0 0)
(-7.652788481770666e-14 0 0)
(-7.712355454795748e-14 0 0)
(-8.575763053272208e-14 0 0)
(-9.553915452417114e-14 0 0)
(-9.579623303931896e-14 0 0)
(-9.674303440003447e-14 0 0)
(-8.318057517344114e-14 0 0)
(-9.720702976885738e-14 0 0)
(-6.557383198883366e-14 0 0)
(-1.197797774414424e-13 0 0)
(-8.635330026297218e-14 0 0)
(-8.904948956831251e-14 0 0)
(-9.20654594656661e-14 0 0)
(-1.002668911200488e-13 0 0)
(-1.158044657679928e-13 0 0)
(-1.083742696591029e-13 0 0)
(-1.244071907143255e-13 0 0)
(-6.411914380549112e-14 0 0)
(-1.677907576994718e-13 0 0)
(-1.091643158276513e-13 0 0)
(-1.225010475775296e-13 0 0)
(-1.069195814757675e-13 0 0)
(-1.114153203872408e-13 0 0)
(-1.109137037722676e-13 0 0)
(-1.108384612800363e-13 0 0)
(-1.096784728579761e-13 0 0)
(-1.121990963480822e-13 0 0)
(-1.13559731416127e-13 0 0)
(-1.401642226313052e-13 0 0)
(-1.354991881123369e-13 0 0)
(-1.109701356414499e-13 0 0)
(-9.913198352872572e-14 0 0)
(-9.502499749385489e-14 0 0)
(-7.2088577775443e-14 0 0)
(-1.321007355460617e-13 0 0)
(-1.011259095731334e-13 0 0)
(-1.009252629271498e-13 0 0)
(-9.734497433797139e-14 0 0)
(-1.074462789214631e-13 0 0)
(-1.060605630226498e-13 0 0)
(-9.717567873042413e-14 0 0)
(-1.077096276442917e-13 0 0)
(-6.135398221558641e-14 0 0)
(-1.709195913351823e-13 0 0)
(-1.010632074962454e-13 0 0)
(-1.05872456792061e-13 0 0)
(-1.017654707571682e-13 0 0)
(-1.030759441637129e-13 0 0)
(-9.474283814792738e-14 0 0)
(-1.014519603728413e-13 0 0)
(-1.293731952022728e-13 0 0)
(-6.92293630702368e-14 0 0)
(-1.841183785159519e-13 0 0)
(-1.144375604922462e-13 0 0)
(-1.154157128914158e-13 0 0)
(-1.264638188355832e-13 0 0)
(-1.366967977805027e-13 0 0)
(-1.371106314878329e-13 0 0)
(-9.613482425442228e-14 0 0)
(-1.66342339723822e-13 0 0)
(-7.876634896192053e-14 0 0)
(-1.775660114832383e-13 0 0)
(-1.209961977326758e-13 0 0)
(-1.307150196472798e-13 0 0)
(-1.340194190982349e-13 0 0)
(-1.194913478878533e-13 0 0)
(-1.37950839317872e-13 0 0)
(-8.148761909800194e-14 0 0)
(-1.909152836484915e-13 0 0)
(-1.230277450232039e-13 0 0)
(-1.423023634525311e-13 0 0)
(-1.488359198622001e-13 0 0)
(-1.582161505617242e-13 0 0)
(-1.648186792559167e-13 0 0)
(-1.50685631129818e-13 0 0)
(-1.530745802584602e-13 0 0)
(-1.573132406547808e-13 0 0)
(-1.670571434001111e-13 0 0)
(-1.104120871573253e-13 0 0)
(-2.134504100749285e-13 0 0)
(-1.604734253289364e-13 0 0)
(-1.705810001201055e-13 0 0)
(-1.677468662456278e-13 0 0)
(-1.636022589646711e-13 0 0)
(-1.591065200532235e-13 0 0)
(-1.695840370979142e-13 0 0)
(-1.850965309151181e-13 0 0)
(-1.2251358799291e-13 0 0)
(-2.278468069239029e-13 0 0)
(-1.644236561716519e-13 0 0)
(-1.703113811895767e-13 0 0)
(-1.739857228940278e-13 0 0)
(-1.900061035339072e-13 0 0)
(-2.055938398433485e-13 0 0)
(-1.726313580337101e-13 0 0)
(-2.25388885510671e-13 0 0)
(-1.958436668903438e-13 0 0)
(-1.977748908578864e-13 0 0)
(-1.954925352598391e-13 0 0)
(-1.897678356418072e-13 0 0)
(-1.883444984968833e-13 0 0)
(-1.737788060403905e-13 0 0)
(-1.84632535546287e-13 0 0)
(-1.278934261881954e-13 0 0)
(-2.376596819537775e-13 0 0)
(-1.758918660308473e-13 0 0)
(-1.935487708769656e-13 0 0)
(-1.838299489623425e-13 0 0)
(-1.809331130110674e-13 0 0)
(-1.684240486758489e-13 0 0)
(-1.637590141568621e-13 0 0)
(-1.820805610177554e-13 0 0)
(-1.24488703414256e-13 0 0)
(-2.299097052528665e-13 0 0)
(-1.812152723569453e-13 0 0)
(-1.856796602299965e-13 0 0)
(-1.727066005259476e-13 0 0)
(-1.658971549780529e-13 0 0)
(-1.775722816909255e-13 0 0)
(-1.459077328724514e-13 0 0)
(-1.90971715517674e-13 0 0)
(-1.738038868711448e-13 0 0)
(-1.903948564104781e-13 0 0)
(-1.872597525670269e-13 0 0)
(-1.84187350800523e-13 0 0)
(-1.834349258780957e-13 0 0)
(-1.767696951070122e-13 0 0)
(-1.929405607313342e-13 0 0)
(-1.267522483891928e-13 0 0)
(-2.275207561241836e-13 0 0)
(-1.802810114116026e-13 0 0)
(-1.869964038442171e-13 0 0)
(-1.729574088334105e-13 0 0)
(-1.75064198616192e-13 0 0)
(-1.770455842452266e-13 0 0)
(-1.726313580337001e-13 0 0)
(-1.815914848181851e-13 0 0)
(-1.229650429463479e-13 0 0)
(-2.218023267137961e-13 0 0)
(-1.644361965869967e-13 0 0)
(-1.64787328217488e-13 0 0)
(-1.573257810701627e-13 0 0)
(-1.719040139420349e-13 0 0)
(-1.999318423021502e-13 0 0)
(-1.7613013392296e-13 0 0)
(-2.361673725243235e-13 0 0)
(-1.972356529967888e-13 0 0)
(-2.023333318462103e-13 0 0)
(-1.97392408188986e-13 0 0)
(-1.933042327771785e-13 0 0)
(-1.912664152789646e-13 0 0)
(-1.908713921946865e-13 0 0)
(-2.117135625457003e-13 0 0)
(-1.68010214968516e-13 0 0)
(-2.754753045130338e-13 0 0)
(-2.066221539039536e-13 0 0)
(-2.268498439016946e-13 0 0)
(-2.063211839350243e-13 0 0)
(-1.919686785398795e-13 0 0)
(-1.960192327055635e-13 0 0)
(-1.838801106238647e-13 0 0)
(-1.81710618764228e-13 0 0)
(-1.249903200291815e-13 0 0)
(-2.139206756514515e-13 0 0)
(-1.5252280198205e-13 0 0)
(-1.443088299123102e-13 0 0)
(-1.238867634763052e-13 0 0)
(-1.197233455722621e-13 0 0)
(-1.087128608741965e-13 0 0)
(-6.117841640036756e-14 0 0)
(-1.096220409887679e-13 0 0)
(-7.555600262625285e-14 0 0)
(-7.499168393443652e-14 0 0)
(-5.427491773716643e-14 0 0)
(-5.201137276221398e-14 0 0)
(-2.609033418488092e-14 0 0)
(-1.943764382915052e-15 0 0)
(-1.839678935313793e-14 0 0)
(6.628236545744324e-14 0 0)
(-2.789615399867595e-14 0 0)
(5.016166149462649e-14 0 0)
(7.022005588478708e-14 0 0)
(1.05621648484603e-13 0 0)
(1.215417058014684e-13 0 0)
(1.404526521849349e-13 0 0)
(1.702486791127308e-13 0 0)
(1.87899313751142e-13 0 0)
(2.771745307961496e-13 0 0)
(2.084844055869957e-13 0 0)
(3.03891885749759e-13 0 0)
(3.125008809037573e-13 0 0)
(3.486862494644208e-13 0 0)
(3.903329689203303e-13 0 0)
(4.049488230383352e-13 0 0)
(4.95158301028707e-13 0 0)
(4.227185916227725e-13 0 0)
(5.452509902387728e-13 0 0)
(5.517720062330718e-13 0 0)
(6.542397402511826e-13 0 0)
(5.92352790382161e-13 0 0)
(7.027147158780446e-13 0 0)
(7.4076233612171e-13 0 0)
(7.95908812727368e-13 0 0)
(8.389788693280872e-13 0 0)
(8.783432331860361e-13 0 0)
(9.773686231841394e-13 0 0)
(9.235514306080556e-13 0 0)
(1.032972824950799e-12 0 0)
(1.083567130775888e-12 0 0)
(1.13429938116999e-12 0 0)
(1.192261181027012e-12 0 0)
(1.2594778074298e-12 0 0)
(1.318348787401331e-12 0 0)
(1.355963763314645e-12 0 0)
(1.454268079428795e-12 0 0)
(1.389622238177536e-12 0 0)
(1.505940860975758e-12 0 0)
(1.542941356535903e-12 0 0)
(1.588582198288216e-12 0 0)
(1.63896331705191e-12 0 0)
(1.699383038322018e-12 0 0)
(1.75755802524054e-12 0 0)
(1.804791499745402e-12 0 0)
(1.916608113424575e-12 0 0)
(1.862188980910447e-12 0 0)
(1.969754393778115e-12 0 0)
(2.01510680597693e-12 0 0)
(2.066177647586125e-12 0 0)
(2.120458835530858e-12 0 0)
(2.149151305905837e-12 0 0)
(2.264015240520874e-12 0 0)
(2.205087828680095e-12 0 0)
(2.319682144364399e-12 0 0)
(2.348462397647e-12 0 0)
(2.408085802541105e-12 0 0)
(2.454566852123552e-12 0 0)
(2.505085915456317e-12 0 0)
(2.562420694544427e-12 0 0)
(2.594467726032034e-12 0 0)
(2.712918219443955e-12 0 0)
(2.657414341000013e-12 0 0)
(2.782655469336511e-12 0 0)
(2.818489706267057e-12 0 0)
(2.880119577620804e-12 0 0)
(2.938363536823649e-12 0 0)
(2.987678720280274e-12 0 0)
(3.032661190226014e-12 0 0)
(3.069950115339478e-12 0 0)
(3.193285100539355e-12 0 0)
(3.14457812722791e-12 0 0)
(3.268439809873563e-12 0 0)
(3.312676125104234e-12 0 0)
(3.367935465448327e-12 0 0)
(3.434606583781949e-12 0 0)
(3.478103014505674e-12 0 0)
(3.591932364852435e-12 0 0)
(3.536052273947326e-12 0 0)
(3.646075608228068e-12 0 0)
(3.688430861152697e-12 0 0)
(3.753797776287753e-12 0 0)
)
;

boundaryField
{
    inlet
    {
        type            calculated;
        value           uniform (-0.0001091927142026834 0 0);
    }
    outlet
    {
        type            calculated;
        value           uniform (3.773790358982244e-12 0 0);
    }
    frontAndBack
    {
        type            empty;
    }
}


// ************************************************************************* //
