/*--------------------------------*- C++ -*----------------------------------*\
| =========                 |                                                 |
| \\      /  F ield         | OpenFOAM: The Open Source CFD Toolbox           |
|  \\    /   O peration     | Version:  v2012                                 |
|   \\  /    A nd           | Website:  www.openfoam.com                      |
|    \\/     M anipulation  |                                                 |
\*---------------------------------------------------------------------------*/
FoamFile
{
    version     2.0;
    format      ascii;
    class       volScalarField;
    location    "0.016";
    object      p;
}
// * * * * * * * * * * * * * * * * * * * * * * * * * * * * * * * * * * * * * //

dimensions      [1 -1 -2 0 0 0 0];


internalField   nonuniform List<scalar> 
1000
(
101310.8257244117
101313.3117200539
101306.3600621501
101300.7694565179
101294.6044635196
101289.1057101136
101284.3819107768
101280.3145829973
101276.8367595286
101274.4715270411
101273.6873096805
101273.6980102781
101274.1525920079
101275.327843444
101277.5069627241
101280.7382644225
101284.8980949351
101289.8031776731
101295.2975719617
101301.2693562584
101307.627174303
101314.2763836305
101321.1101107067
101328.0122799948
101334.863926607
101341.5477858715
101347.9579388907
101354.0203330634
101359.7061586093
101365.001017888
101369.7494653096
101373.3823027631
101375.2144378069
101375.6062709922
101375.6079447602
101375.2867013335
101374.4433466289
101372.8393765894
101370.2820672119
101366.6827857328
101362.0873039379
101356.654042148
101350.5942049694
101344.1091077574
101337.3563586786
101330.4520018861
101323.492326716
101316.5735702255
101309.7958657593
101303.2469895206
101296.9779283873
101291.0077148729
101285.4070005366
101280.5083869807
101277.053822916
101275.5156490791
101275.2314361554
101275.2744508831
101275.6068071796
101276.4018109047
101277.8509776969
101280.1348395743
101283.3770126424
101287.6077761267
101292.7517129532
101298.646005144
101305.081369818
101311.8479332438
101318.7679637402
101325.7077017837
101332.5727435452
101339.2978069707
101345.8430262184
101352.1930845783
101358.3264715226
101364.1288616379
101369.2234400778
101372.825015427
101374.4104132506
101374.7380429037
101374.7751793549
101374.5321205473
101373.8959772612
101372.6850110515
101370.7282630279
101367.8869561043
101364.0842505771
101359.3245933825
101353.699726974
101347.3759308729
101340.5639491112
101333.4813428043
101326.3187339283
101319.2182974798
101312.2680804772
101305.5075494185
101298.9425411774
101292.5927958057
101286.6065910724
101281.4548662168
101277.9769212388
101276.5316438533
101276.254241677
101276.2523099841
101276.5137092019
101277.1526574731
101278.3217104432
101280.1748741092
101282.8444340871
101286.4152266684
101290.9056079255
101296.2580396191
101302.3427956287
101308.9758802599
101315.9481268448
101323.0591139364
101330.1471732421
101337.1060465089
101343.8868436777
101350.4852106616
101356.8867088598
101362.9535535941
101368.2716856201
101372.0394170491
101373.7062182205
101374.0783255378
101374.1653594757
101373.9928602394
101373.5013602976
101372.52970682
101370.9298950167
101368.5683249739
101365.3442128036
101361.2064445253
101356.168011457
101350.3125270146
101343.7881864213
101336.7886520068
101329.5233300751
101322.183314799
101314.9144823237
101307.8058088039
101300.8964217442
101294.2265719363
101287.9653872747
101282.5947991016
101278.9472401307
101277.411288833
101277.0878855354
101277.0336264106
101277.2297143957
101277.741786672
101278.7106407215
101280.269398412
101282.5423433879
101285.6254550283
101289.571259659
101294.377304196
101299.9801472393
101306.2577146339
101313.0418241833
101320.1411029091
101327.3708577811
101334.58003046
101341.6669010902
101348.5802078704
101355.2757672565
101361.6002053731
101367.1442333938
101371.1437849817
101373.003656797
101373.4543925989
101373.5785375182
101373.4698174175
101373.0945229181
101372.3078970017
101370.9743205866
101368.9688878259
101366.1869972143
101362.5560757778
101358.0492400202
101352.6955668841
101346.5831092693
101339.8529399211
101332.6829643533
101325.2621044812
101317.7627631099
101310.3216333543
101303.0328054401
101295.981692176
101289.3690798884
101283.691288885
101279.773741727
101278.0574188348
101277.6639123289
101277.5704668437
101277.7079344818
101278.1120878435
101278.9134506004
101280.2336219261
101282.1890623716
101284.8780068299
101288.3681799947
101292.6864078571
101297.8112546237
101303.6701118286
101310.1426291355
101317.0726267994
101324.2889848421
101331.6295492474
101338.9592166998
101346.1802307862
101353.2087851154
101359.8647405926
101365.7212541343
101370.0332077808
101372.1551389247
101372.7028540622
101372.8489896596
101372.7976555582
101372.5157639989
101371.8806151679
101370.7657990986
101369.0542014313
101366.6428141915
101363.4505714167
101359.4302840527
101354.5788683218
101348.942831382
101342.6181391214
101335.7428898684
101328.4810109421
101321.0008900542
101313.4576660533
101305.9825857746
101298.7023721534
101291.8499104971
101285.9415392988
101281.7993119929
101279.9121962847
101279.4580758752
101279.3391087752
101279.4251067219
101279.7415003892
101280.4023441618
101281.5174806278
101283.1933395949
101285.5248639574
101288.5858176124
101292.4194481656
101297.0313642337
101302.3850607116
101308.401165596
101314.9625176594
101321.9269809451
101329.1452951124
101336.4760744211
101343.796569905
101350.9947612193
101357.8767475697
101364.0042966677
101368.6419557795
101371.0947510895
101371.7855111944
101371.9425222696
101371.9482220351
101371.7490832409
101371.2511907223
101370.3388927989
101368.9030712159
101366.8434545561
101364.0742654061
101360.5341761801
101356.1950767643
101351.0676453752
101345.2040128505
101338.6963263571
101331.6685919739
101324.2631331735
101316.629066084
101308.9144470998
101301.2761167528
101293.9763128936
101287.5733320251
101282.9561636336
101280.7264460552
101280.15564583
101280.023347401
101280.0644546718
101280.3093836662
101280.8572624446
101281.8111968265
101283.2707952311
101285.3277084353
101288.0581536987
101291.5149825822
101295.7218047064
101300.6685323683
101306.3086211627
101312.5599755285
101319.3119428883
101326.4375452767
101333.8041888244
101341.280122023
101348.7334124382
101355.9617670421
101362.5163037357
101367.6316097025
101370.5395016737
101371.44343655
101371.6101946536
101371.6615258628
101371.5188118387
101371.1223925271
101370.3592595997
101369.1270590769
101367.3277975716
101364.8734551816
101361.6952139635
101357.7505506859
101353.0277859464
101347.5496183132
101341.3746968976
101334.5943232618
101327.3239933312
101319.6961574295
101311.8576127365
101303.9758746159
101296.3151611314
101289.4356825959
101284.2726442134
101281.572160024
101280.8031628536
101280.6629750521
101280.6592032357
101280.8441261038
101281.294946521
101282.108473678
101283.380167082
101285.2005351188
101287.6477389159
101290.7803181484
101294.6329018059
101299.2128430263
101304.4969155134
101310.4300176466
101316.9285405239
101323.8884569188
101331.1926493049
101338.7133370758
101346.3129434034
101353.7992970073
101360.7493295015
101366.3856270072
101369.8614314299
101371.1000386541
101371.3119383947
101371.3899427724
101371.2989335244
101370.9927998988
101370.362642981
101369.3106257047
101367.7414802674
101365.5658328991
101362.7095872275
101359.1205460264
101354.7717163954
101349.6643280963
101343.8306323789
101337.3337401953
101330.2630040447
101322.7299217734
101314.8703649453
101306.8510838242
101298.9216160374
101291.6042689545
101285.8434632119
101282.5403686043
101281.4661270644
101281.2942469431
101281.2541012887
101281.388858845
101281.7542307938
101282.4442006921
101283.5489555877
101285.1577047842
101287.3502250955
101290.1894722336
101293.7181847864
101297.9565160945
101302.8988575832
101308.5114794947
101314.7334451763
101321.4817983939
101328.6571424608
101336.1434320785
101343.8052052776
101351.4624419405
101358.7442489134
101364.9006808916
101369.012412646
101370.7258942744
101371.0443257902
101371.1318833098
101371.0841225931
101370.853115007
101370.3377222519
101369.4453088096
101368.0833052101
101366.1600716025
101363.5961659168
101360.3321518727
101356.3304717974
101351.5768143115
101346.0830951886
101339.8893655961
101333.0619443232
101325.6912546969
101317.8966414485
101309.8347508078
101301.7320831253
101294.0453058417
101287.6845094869
101283.6922921844
101282.1775447202
101281.9184903111
101281.8586225191
101281.9505025392
101282.2397603502
101282.8186851659
101283.7727412088
101285.1896191199
101287.150826431
101289.7229213851
101292.9543572643
101296.874501425
101301.4911939534
101306.7877612504
101312.7221144606
101319.2297393269
101326.2280367033
101333.614907764
101341.2630566205
101349.0069932266
101356.5403530324
101363.1817454394
101367.9530250535
101370.2740435887
101370.8022346046
101370.8887844599
101370.8768817212
101370.7100890178
101370.295944736
101369.5458381731
101368.3698486777
101366.6753547467
101364.3788275577
101361.4148230014
101357.7374196151
101353.3204336468
101348.1599757334
101342.2774431945
101335.7198500237
101328.5585996649
101320.8944364637
101312.8687578309
101304.6862006258
101296.7299150736
101289.8144017881
101285.077967644
101282.976339664
101282.531093076
101282.4622162314
101282.5195930231
101282.7457564308
101283.2281523327
101284.047525614
101285.2894206222
101287.0376509842
101289.362879698
101292.3184159905
101295.9406189093
101300.2477151054
101305.23656867
101310.8804726071
101317.1303893754
101323.918495826
101331.1572924451
101338.7322543478
101346.4912395741
101354.1829952539
101361.2353209451
101366.6606604742
101369.6802150096
101370.5726105146
101370.6644721769
101370.6801477511
101370.5637897779
101370.2338621459
101369.6066666574
101368.5967909656
101367.1119280214
101365.0638053981
101362.3799987139
101359.0072054105
101354.9104419778
101350.0739857189
101344.5044188808
101338.2326026984
101331.3133585271
101323.8294980777
101315.9045296095
101307.7208045662
101299.5930943971
101292.2064800337
101286.7199387586
101283.9160860062
101283.1547791912
101283.0736839376
101283.0966839842
101283.2691161521
101283.6662935546
101284.3650518314
101285.4479087393
101286.9998678418
101289.0955197211
101291.7928749023
101295.1341795834
101299.1459130042
101303.8358695428
101309.1902311143
101315.1731999951
101321.7296617665
101328.7858588124
101336.2413634692
101343.9569158559
101351.7217276838
101359.0881762706
101365.1342444295
101368.8948771411
101370.296428497
101370.4698085829
101370.492677827
101370.4113300348
101370.1530954297
101369.6323545261
101368.7706369994
101367.4765731357
101365.6580705634
101363.2367675708
101360.1527820125
101356.3633139135
101351.8426474346
101346.5850399333
101340.6076741545
101333.9513211592
101326.6826464108
101318.9065997236
101310.7844284916
101302.5781319418
101294.8376639413
101288.6482319527
101285.0559774716
101283.8312332718
101283.6801187846
101283.6864351668
101283.8149452636
101284.1406979714
101284.7342190355
101285.6734837553
101287.0439516103
101288.9246183231
101291.3786996321
101294.4535514006
101298.1821173468
101302.5811320507
101307.6478072611
101313.358085154
101319.6682544375
101326.5164742953
101333.8154882078
101341.4407238286
101349.2127980155
101356.7872989095
101363.3731655914
101367.8839903907
101369.9252447194
101370.3112881773
101370.3186037537
101370.2659529466
101370.0641788291
101369.6342046736
101368.9016186477
101367.7791951677
101366.1736083083
101364.0005846509
101361.1924801534
101357.6985230786
101353.4846199051
101348.5352243623
101342.8561194921
101336.4758789125
101329.447319991
101321.8580409916
101313.8482244402
101305.6388880423
101297.6639255565
101290.8549485793
101286.4287431176
101284.6107297832
101284.2883242176
101284.2839461318
101284.3761485821
101284.6409762035
101285.1438207171
101285.9567658971
101287.1633012641
101288.845514331
101291.0712793774
101293.8927252338
101297.3486458882
101301.4636339102
101306.2446204808
101311.6783196285
101317.7314526659
101324.3522953069
101331.4667160101
101338.9665759072
101346.6934553439
101354.3730004562
101361.3858924621
101366.6369753159
101369.4068281552
101370.1429790713
101370.1708566341
101370.1330536178
101369.9694628471
101369.6140098956
101368.9920365362
101368.0219925737
101366.610337403
101364.6678574807
101362.1206066043
101358.9110844868
101354.9972324239
101350.3539730286
101344.9763132053
101338.8817523413
101332.1115365269
101324.7371373739
101316.877946604
101308.7259054203
101300.6257962546
101293.3237499466
101288.0692448031
101285.5362442248
101284.8998173162
101284.8720309977
101284.9389684166
101285.1530158167
101285.5791711563
101286.2819212844
101287.3406755128
101288.8395946063
101290.8514123255
101293.4330985567
101296.6284092643
101300.4683248733
101304.9681314068
101310.1243267416
101315.9135242877
101322.2937847107
101329.2032683871
101336.547820282
101344.1853556416
101351.8943558738
101359.2101420728
101365.1408917167
101368.6774657163
101369.9260015583
101370.0644070411
101370.0135959146
101369.8832487356
101369.5849001816
101369.0528486851
101368.2126357105
101366.973325161
101365.2434724427
101362.9435208826
101360.008388431
101356.3874909691
101352.0469311495
101346.9723758132
101341.1712835949
101334.6740062173
101327.5375358772
101319.8624460565
101311.8158325774
101303.6745600627
101296.0180673086
101289.9981730881
101286.66034373
101285.5694127781
101285.4566249691
101285.514349767
101285.6805442658
101286.040832146
101286.648461699
101287.5762326022
101288.9082425418
101290.7215551795
101293.0776807686
101296.0246469123
101299.5987828272
101303.822562043
101308.7012646647
101314.2210590235
101320.3494718486
101327.034989592
101334.197628158
101341.7142682654
101349.3979942046
101356.8898379546
101363.3818400059
101367.7204289456
101369.6272382111
101369.9605883614
101369.9231155169
101369.8119899198
101369.55614062
101369.096783636
101368.3656206642
101367.2786228293
101365.7425624469
101363.67239793
101360.9970437548
101357.6591935231
101353.6167916378
101348.8461388708
101343.3445469902
101337.131935768
101330.2531488995
101322.7902920228
101314.8862231212
101306.7747564991
101298.9071536973
101292.2391053255
101288.0181333819
101286.3375976076
101286.0451945917
101286.0868506402
101286.2171395927
101286.5240273993
101287.0525090247
101287.867295031
101289.0489168172
101290.6776792984
101292.8205138021
101295.5304951486
101298.8489696943
101302.804247759
101307.4086820425
101312.6566697792
101318.5242588603
101324.9695584063
101331.927648204
101339.2937426341
101346.9019823688
101354.4678511052
101361.3817290572
101366.5201519796
101369.1484941398
101369.8486649773
101369.8723788536
101369.7667296776
101369.5423508163
101369.1375942584
101368.4936529967
101367.5348704339
101366.170375157
101364.312238166
101361.8835908657
101358.8191867686
101355.0678384577
101350.597027963
101345.3956395182
101339.4748885433
101332.8692542494
101325.643630418
101317.9165074184
101309.8893301707
101301.9166607729
101294.7439939874
101289.6408565497
101287.2568760366
101286.6516871551
101286.6387452255
101286.749561295
101287.0080754452
101287.4721164921
101288.1916596054
101289.2409378375
101290.7011130878
101292.643932794
101295.128308055
101298.2014995909
101301.8977382248
101306.2353524096
101311.2149976291
101316.8193752175
101323.0142689703
101329.7464044879
101336.9288254132
101344.4202914205
101351.9931643674
101359.1835017294
101365.0220491609
101368.453439367
101369.6994512251
101369.8330848843
101369.7434699664
101369.5522518928
101369.1876864422
101368.6069693349
101367.7494446822
101366.5325617221
101364.8668876366
101362.6694924428
101359.8673016006
101356.4000026821
101352.2252618987
101347.3228581842
101341.6962001687
101335.3720777922
101328.4028986324
101320.8849027159
101312.9886507031
101304.9997850178
101297.4939108878
101291.5977548489
101288.3697867617
101287.3083549127
101287.1761521399
101287.2692064289
101287.4822745375
101287.8972370131
101288.545074133
101289.4874512463
101290.8001055628
101292.5568688062
101294.823095801
101297.6550223878
101301.096202567
101305.1726172716
101309.8905885239
101315.2372323922
101321.1821290262
101327.6785903433
101334.6554695216
101341.9960748758
101349.5097583088
101356.8386967809
101363.2266996809
101367.5293409891
101369.3965978786
101369.7956315624
101369.7626708035
101369.5959332615
101369.2675442046
101368.7339716474
101367.9496319758
101366.8465423484
101365.3435904684
101363.3583899818
101360.8105752071
101357.6264275819
101353.7485008587
101349.144437407
101343.809742912
101337.7663372067
101331.0611758967
101323.7750513134
101316.0490865115
101308.1194949646
101300.4303961924
101293.8940110775
101289.737021265
101288.1008771447
101287.7667374994
101287.7759109429
101287.9511221241
101288.3148937027
101288.9070061136
101289.771285868
101290.9703111051
101292.570227255
101294.6350616396
101297.22791397
101300.4066812633
101304.2136447938
101308.667283759
101313.760876988
101319.4652430769
101325.7331517127
101332.4990228205
101339.6620022085
101347.0633183297
101354.434356891
101361.1939910437
101366.286897906
101368.9057804582
101369.6937653845
101369.7818701965
101369.6681722414
101369.3975487748
101368.9059506251
101368.1688838004
101367.1392490242
101365.7542538817
101363.9422698259
101361.6255810718
101358.722833577
101355.157650895
101350.8723384536
101345.8408659837
101340.075474746
101333.6238202118
101326.5642891725
101319.0232744735
101311.2036462645
101303.4444805054
101296.4578839359
101291.4430719505
101289.0655646544
101288.4175427878
101288.3191185152
101288.4136445355
101288.6974727707
101289.2231241253
101290.026896777
101291.1529689857
101292.647622628
101294.5580300389
101296.9384402169
101299.8530955605
101303.3668511357
101307.5274086778
101312.3502502344
101317.8141476336
101323.8675117678
101330.4392868178
101337.4334714131
101344.7066308689
101352.0423357113
101359.0116551531
101364.7183692132
101368.1838898541
101369.4635848325
101369.692830321
101369.7084344468
101369.5398333787
101369.1450117737
101368.4726593838
101367.4856020625
101366.1492612515
101364.4291672955
101362.2794570688
101359.6309567002
101356.3930593792
101352.4718091318
101347.7957007781
101342.3388409275
101336.1363346168
101329.2788519586
101321.9031025398
101314.2038064857
101306.4530880005
101299.1822163878
101293.456732834
101290.2267670906
101289.1423808169
101288.9718067257
101288.9704653016
101289.1375125059
101289.5270758418
101290.2015031816
101291.2282539408
101292.6607046952
101294.5236165195
101296.8206057667
101299.5577918495
101302.7675149385
101306.524309945
101310.9398923922
101316.1092382555
101322.0215497568
101328.5013889405
101335.386841944
101342.3087007623
101350.257761859
)
;

boundaryField
{
    inlet
    {
        type            uniformFixedValue;
        uniformValue    sine;
        uniformValueCoeffs
        {
            frequency       constant 3000;
            scale           constant 50;
            level           constant 101325;
        }
        value           uniform 101323.6421297957;
    }
    outlet
    {
        type            pressureOutletNSCBC;
        pInf            101325;
        gamma           1.4;
        etaAc           1;
        fieldInf        1;
        lInf            2.25;
        value           uniform 101353.9752682886;
    }
    frontAndBack
    {
        type            empty;
    }
}


// ************************************************************************* //
