/*--------------------------------*- C++ -*----------------------------------*\
| =========                 |                                                 |
| \\      /  F ield         | OpenFOAM: The Open Source CFD Toolbox           |
|  \\    /   O peration     | Version:  v2012                                 |
|   \\  /    A nd           | Website:  www.openfoam.com                      |
|    \\/     M anipulation  |                                                 |
\*---------------------------------------------------------------------------*/
FoamFile
{
    version     2.0;
    format      ascii;
    class       volScalarField;
    location    "0.016";
    object      pMean;
}
// * * * * * * * * * * * * * * * * * * * * * * * * * * * * * * * * * * * * * //

dimensions      [1 -1 -2 0 0 0 0];


internalField   nonuniform List<scalar> 
1000
(
101325.0450440894
101325.0027338193
101325.0118691271
101325.020565106
101325.0322374265
101325.0464292556
101325.0612227786
101325.080030501
101325.0998151624
101325.1215879861
101325.1439310614
101325.1660953102
101325.1882961379
101325.2101185272
101325.2313679409
101325.2515126622
101325.2701804847
101325.2869725656
101325.3015192485
101325.3136828312
101325.3231566867
101325.3298791541
101325.3335764646
101325.3343295924
101325.3320064547
101325.3267607679
101325.3186567195
101325.3078636091
101325.2944577044
101325.2787109343
101325.2607282621
101325.2408908242
101325.2198079396
101325.198244868
101325.1767180508
101325.1552431366
101325.1339824418
101325.1131832059
101325.0931910271
101325.0744369508
101325.0574065265
101325.0424365262
101325.0299396129
101325.0201360414
101325.0132204999
101325.0091944583
101325.0082497699
101325.0103137924
101325.0153579793
101325.0233454645
101325.0341236585
101325.0475417935
101325.0634767133
101325.0817266111
101325.1018343856
101325.1230486046
101325.1445741644
101325.1662459167
101325.1877565393
101325.2090904656
101325.2300105704
101325.2502250792
101325.2693194974
101325.286976002
101325.3026009569
101325.3159586321
101325.3266623945
101325.3345629734
101325.3394316348
101325.3413195576
101325.3401090891
101325.3359641394
101325.3289087642
101325.3190763082
101325.3064857155
101325.2912913623
101325.2736784846
101325.2541023379
101325.2333791815
101325.2122129174
101325.1911677044
101325.1701509539
101325.1492726176
101325.1287995226
101325.1088922678
101325.0899449306
101325.0723616056
101325.0565369366
101325.0428720222
101325.0317928405
101325.0235197952
101325.018276787
101325.016088806
101325.0170230321
101325.0210446337
101325.0280568157
101325.0380113351
101325.0507898801
101325.0662183789
101325.0841754957
101325.1040172204
101325.1249688907
101325.146122604
101325.1675063232
101325.1886834359
101325.2097036215
101325.230416622
101325.2505456033
101325.269795309
101325.2878337779
101325.3042050562
101325.3185338617
101325.3304611141
101325.3396628057
101325.3459942218
101325.3491500764
101325.3491971945
101325.3462226282
101325.3401634559
101325.3312513536
101325.3194814982
101325.3049430078
101325.287898412
101325.2687721576
101325.248439441
101325.2276345668
101325.2069350001
101325.1862941181
101325.1657226859
101325.1455201242
101325.1257610598
101325.1068202028
101325.0889447069
101325.0726485954
101325.0581579445
101325.0460488444
101325.036520868
101325.0300154749
101325.0264161508
101325.0261268952
101325.0290020481
101325.0350185328
101325.0441297694
101325.0562586651
101325.0711727856
101325.0887279245
101325.1082690317
101325.1289734173
101325.1499405449
101325.1709701637
101325.1920264647
101325.2128504386
101325.233400321
101325.2535056083
101325.272849178
101325.2911380071
101325.3080517885
101325.3231309928
101325.3360565429
101325.346470091
101325.3541692247
101325.3586990467
101325.360193621
101325.3585155092
101325.3536606413
101325.3457680113
101325.3348927645
101325.3211538751
101325.3047328026
101325.2861802548
101325.2662430749
101325.2459021227
101325.2253317411
101325.2051602227
101325.1849239591
101325.1649743621
101325.145437068
101325.1265758179
101325.1086116582
101325.0920216738
101325.0770140796
101325.0641222072
101325.0536074007
101325.0459656038
101325.0410834118
101325.0395907423
101325.0412089102
101325.0462033762
101325.0543475117
101325.0657398157
101325.0801278911
101325.097258633
101325.1165640958
101325.137103259
101325.1580480322
101325.178817492
101325.1999080343
101325.2206802764
101325.241165098
101325.2613201713
101325.2808082164
101325.2994116463
101325.3167683756
101325.3325814508
101325.3463949732
101325.3579636603
101325.3669222574
101325.3730027943
101325.3759758902
101325.3757363068
101325.3723297803
101325.3656755432
101325.3559215477
101325.3431885623
101325.3275774917
101325.3097285654
101325.2903053776
101325.2704397928
101325.2502174079
101325.2304815844
101325.210653119
101325.1910241852
101325.1717767694
101325.1531291893
101325.1352694364
101325.1185332702
101325.1032709025
101325.0898268945
101325.0785827215
101325.0698901785
101325.0640899618
101325.0611961856
101325.0615338854
101325.065248835
101325.0721620147
101325.08240055
101325.0957863019
101325.1120249979
101325.1305453918
101325.1504140373
101325.1707442359
101325.1908856278
101325.2113209309
101325.2315482289
101325.2514345834
101325.2710576147
101325.2901270738
101325.3084423131
101325.3256206685
101325.3415238108
101325.3556017509
101325.367714318
101325.3773581678
101325.384548783
101325.3884931816
101325.3895438547
101325.3873619637
101325.3819832007
101325.3733563637
101325.3616989164
101325.3470944532
101325.3300595546
101325.3113260344
101325.2919645342
101325.2723553841
101325.2528437466
101325.2336322922
101325.214439805
101325.1955633688
101325.1772192949
101325.1595570873
101325.1428455665
101325.1274125758
101325.1135905951
101325.1017183049
101325.0921579808
101325.0853680823
101325.081190504
101325.0803124372
101325.0827058097
101325.0884411898
101325.0975407803
101325.1100019261
101325.1255918131
101325.1436319329
101325.1632899452
101325.1834312191
101325.2036648223
101325.2235869102
101325.2439512996
101325.2637848225
101325.2833615598
101325.3024373661
101325.3208884678
101325.3383279997
101325.3545670003
101325.3692390623
101325.3820769665
101325.3926512068
101325.4009439225
101325.4061128743
101325.4085521059
101325.4076789491
101325.4036640467
101325.3962452406
101325.3856610202
101325.3720099526
101325.355681502
101325.3374709992
101325.3183702185
101325.2991807566
101325.2796013625
101325.2607646458
101325.241806249
101325.2230633181
101325.2048022115
101325.1871895928
101325.1704276319
101325.1547341442
101325.1405623336
101325.1281099988
101325.1178250196
101325.1100517514
101325.1049642141
101325.1028853816
101325.1040237857
101325.1085930258
101325.1165847188
101325.1280166871
101325.1428112773
101325.1603147927
101325.1796720954
101325.1996765384
101325.2199069867
101325.2396362241
101325.2599790793
101325.279822728
101325.2993366163
101325.3184395121
101325.3370013963
101325.3546795017
101325.3712180304
101325.386378762
101325.3998322395
101325.4112552679
101325.4203588856
101325.4269801576
101325.4304389149
101325.4308938048
101325.4281875143
101325.4220974829
101325.4126615353
101325.4000447321
101325.3846175433
101325.3670064741
101325.3482818339
101325.3293329922
101325.3100768541
101325.2912609655
101325.2726329612
101325.254006625
101325.2358690578
101325.2182624744
101325.2015002719
101325.1856506827
101325.1711526266
101325.1582508106
101325.1473665529
101325.1386909533
101325.1328882114
101325.1295445308
101325.1295937288
101325.1329615862
101325.1398464938
101325.150157737
101325.1639911769
101325.1808422679
101325.1997958282
101325.2196698227
101325.2397649787
101325.2596725744
101325.2794810156
101325.2995638902
101325.3190738818
101325.3382342014
101325.3568488323
101325.3747622676
101325.3916106663
101325.407134283
101325.4211595523
101325.4333017611
101325.4432345766
101325.4509447099
101325.4554496557
101325.4572427008
101325.4557964496
101325.4510526369
101325.4428881209
101325.4313859115
101325.4169472125
101325.4000768724
101325.3818149038
101325.3630581873
101325.344345973
101325.3252190215
101325.3070285117
101325.2886267432
101325.2705835646
101325.2529972563
101325.2362308648
101325.2203081498
101325.2055295181
101325.1922572942
101325.1808289162
101325.1714672366
101325.1648040117
101325.160510864
101325.1595319536
101325.1616819804
101325.1674165585
101325.1766261685
101325.1893670387
101325.2053881477
101325.2238543795
101325.243537356
101325.2635020311
101325.2835528499
101325.3029811181
101325.323187522
101325.3427782502
101325.3619268922
101325.3806331597
101325.3986907797
101325.4158589881
101325.431744302
101325.4462383505
101325.4590079846
101325.4697768521
101325.4782348889
101325.4841465313
101325.4869644818
101325.4867488906
101325.4833167021
101325.4764946279
101325.4661903448
101325.4527926689
101325.4368087845
101325.419114028
101325.4006292732
101325.3822385161
101325.3633041851
101325.3452142116
101325.3271138479
101325.3091238721
101325.2916327787
101325.2747962217
101325.2588659065
101325.2439108031
101325.2302790604
101325.2183899206
101325.2084986569
101325.2008854191
101325.1961262313
101325.1938430184
101325.1949426614
101325.1995136722
101325.2075884299
101325.21922465
101325.2342379932
101325.2520832353
101325.2714846051
101325.2913463025
101325.3113178989
101325.3309407093
101325.3506404584
101325.3705003695
101325.3896869102
101325.4085198296
101325.4266703229
101325.4441359215
101325.4603964972
101325.4752893607
101325.4886155741
101325.500132457
101325.5093397404
101325.5164516942
101325.5201600185
101325.5212584498
101325.5190794459
101325.5135912397
101325.5046234745
101325.4923310729
101325.4772923077
101325.4602821639
101325.4422027726
101325.4239725888
101325.4056690776
101325.3871140685
101325.3694995182
101325.3517076424
101325.3342978897
101325.3174399416
101325.3014410825
101325.2864178515
101325.2724954262
101325.2601950377
101325.249792905
101325.2415012433
101325.2359750397
101325.2326863692
101325.2328607642
101325.2362283527
101325.2431691823
101325.2536926185
101325.267623911
101325.2846575131
101325.303687325
101325.3234685315
101325.3432478731
101325.3631717836
101325.3823135963
101325.4024276562
101325.4217325832
101325.4405950369
101325.4588965411
101325.4765207127
101325.4932045376
101325.5084745178
101325.5223187366
101325.5344465301
101325.544499165
101325.5523214014
101325.5574039329
101325.5595364516
101325.558532527
101325.5543670149
101325.5467271184
101325.5356970329
101325.5216043801
101325.5054388168
101325.4878295567
101325.469772027
101325.4519572706
101325.4334326512
101325.4159960784
101325.3984763592
101325.381094007
101325.364302916
101325.3481763594
101325.333126385
101325.3189965706
101325.3063525257
101325.2954267957
101325.2866455337
101325.2801270993
101325.2765276775
101325.2753685071
101325.277687791
101325.2834992852
101325.2928627983
101325.3057503251
101325.3217773359
101325.3403415007
101325.3598285927
101325.3795719419
101325.399492228
101325.4188100942
101325.4384076206
101325.458037991
101325.4769707355
101325.4954508302
101325.51321549
101325.5302115301
101325.5459758652
101325.5601880351
101325.572959642
101325.5837712544
101325.5922779828
101325.5986761851
101325.6015711998
101325.6018811969
101325.5989630909
101325.5926592975
101325.5829765381
101325.5699567025
101325.5546329371
101325.5376115596
101325.5199294039
101325.5022613131
101325.4844599941
101325.4664494739
101325.4494678098
101325.4322552058
101325.41552219
101325.3993501084
101325.3841417963
101325.3700367425
101325.356871577
101325.3457986055
101325.3363637156
101325.329140011
101325.3248532025
101325.3226395688
101325.3240895901
101325.3287034059
101325.3369589812
101325.3487229091
101325.3638078575
101325.381533347
101325.4009816296
101325.4204206636
101325.4402489593
101325.4599768126
101325.4789384105
101325.4989019656
101325.5179761672
101325.5365255423
101325.5544970801
101325.5716573103
101325.5879703059
101325.6024550122
101325.6160362245
101325.6273285373
101325.6366981374
101325.6437976551
101325.6480994679
101325.649406622
101325.6476541865
101325.6426837026
101325.6342987424
101325.622587478
101325.6079844398
101325.5919420957
101325.5743616744
101325.5570520914
101325.5397446662
101325.5217330911
101325.5049231752
101325.4879912044
101325.4712598172
101325.4551474968
101325.4397718437
101325.4255886584
101325.4122372414
101325.4007532387
101325.3908556758
101325.3831067984
101325.3777685401
101325.3753586509
101325.375388734
101325.3789845757
101325.3861314299
101325.3967437586
101325.4108583115
101325.4276577525
101325.4467659863
101325.4660499187
101325.485748104
101325.5055150524
101325.5247077489
101325.5440925098
101325.5635636855
101325.5822166672
101325.6004037981
101325.6177617752
101325.63435283
101325.6495645813
101325.6632115198
101325.6754882215
101325.6855195158
101325.6932777922
101325.6990041963
101325.7009614525
101325.7005574822
101325.6968265174
101325.6897773816
101325.6793723746
101325.6658317094
101325.650385146
101325.6335356089
101325.6162513974
101325.5993533263
101325.582012733
101325.564593214
101325.5482283645
101325.5316531796
101325.5155557102
101325.5001362169
101325.4856847336
101325.4725287872
101325.4601124316
101325.4503587421
101325.4418312554
101325.4357908744
101325.4327475683
101325.4317030189
101325.4344398271
101325.4403598695
101325.4499170437
101325.4629053603
101325.4789479499
101325.4972359295
101325.5166783761
101325.5360090605
101325.5558596959
101325.5752972361
101325.5941161266
101325.613949049
101325.632758846
101325.6510225365
101325.6686495089
101325.685405393
101325.7012856191
101325.7150859929
101325.728310397
101325.7389092461
101325.7474899983
101325.7539244802
101325.7573545387
101325.7578813065
101325.755298027
101325.7496134374
101325.7404729421
101325.7282291531
101325.7133135248
101325.6973711646
101325.6803543719
101325.6635603251
101325.6467738059
101325.6294170046
101325.6131059507
101325.5968450549
101325.5807436577
101325.5653619303
101325.5507160894
101325.5374432019
101325.5248338235
101325.5146160779
101325.5057649834
101325.4989210064
101325.4948862016
101325.4937468255
101325.4949640082
101325.4999119198
101325.5083765529
101325.5202634429
101325.5354269439
101325.5529358632
101325.5721272119
101325.5915181599
101325.6109334867
101325.630738296
101325.6497066592
101325.6688591744
101325.6881787207
101325.7065758025
101325.7244485368
101325.7414398307
101325.757638394
101325.7722329079
101325.7855586754
101325.7970996104
101325.8063860865
101325.8134637187
101325.8185256769
101325.8195178771
101325.8184065621
101325.813876548
101325.8061276308
101325.7950990865
101325.7812381927
101325.7657028281
101325.7493295329
101325.7326025067
101325.7163515151
101325.6995196719
101325.6826068394
101325.666962075
101325.6509672867
101325.6355649842
101325.6208782418
101325.6072638799
101325.5949504116
101325.5835512513
101325.5747091263
101325.5675483329
101325.5624157803
101325.5607648954
101325.5609123215
101325.565000938
101325.5721847606
101325.5830944055
101325.5971805062
101325.614115439
101325.6326334577
101325.6520391809
101325.6714426072
101325.6909944669
101325.710473041
101325.7289887897
101325.7487055725
101325.7672993591
101325.7852551887
101325.8025717518
101325.8189224916
101325.8343356594
101325.8476185656
101325.8601755194
101325.8704450783
101325.8778218209
101325.8837429259
101325.8865397341
101325.8861194595
101325.8827948183
101325.8763852457
101325.8666200389
101325.8539456681
101325.8389746404
101325.8231061657
101325.806922124
101325.7904388309
101325.7746142278
101325.7576136401
101325.7417372997
101325.7262300923
101325.7107810794
101325.696122842
101325.6822819824
101325.6698550542
101325.6581554752
101325.6489995077
101325.6412994922
101325.6355084541
101325.632612522
101325.6330224751
101325.6351876529
101325.6416070597
101325.6513164362
101325.6644473367
101325.6805310435
101325.6986396736
101325.7176321343
101325.7371603071
101325.7564135888
101325.77616783
101325.7950526908
101325.8136591987
101325.8330535641
101325.8511791248
101325.8687398411
101325.8854007599
101325.901146035
101325.9152376775
101325.9280100075
101325.9388411943
101325.9477581522
101325.9536504343
101325.9582791696
101325.958373423
101325.9566287881
101325.9512204796
101325.9428832559
101325.9313116007
101325.9173983451
101325.9017720695
101325.8860052714
101325.8700288472
101325.8540081696
101325.8383213019
101325.8213324208
101325.8066233215
101325.7913156896
101325.7764953001
101325.7626368117
101325.7498179043
101325.7384033293
101325.7279906417
101325.7201977288
101325.7144647619
101325.7100007924
101325.7095737687
101325.7116978317
101325.7165772535
101325.7251972633
101325.7372885771
101325.7524444052
101325.770099856
101325.7887543664
101325.8080663493
101325.8275925941
101325.8466199265
101325.86663819
101325.8846718321
101325.9037113186
101325.9224976508
101325.9401494843
101325.9571983335
101325.9732193706
101325.9880667821
101326.0008925312
101326.0128507329
101326.0224262665
101326.0293174119
101326.0340803169
101326.0368752503
101326.0349433532
101326.0312804242
101326.0240231205
101326.0137618206
101326.000766177
101325.9860455751
101325.970155529
101325.9546920425
101325.9389722249
101325.923442444
101325.9079223678
101325.8912184754
101325.8770794479
101325.8623554954
101325.8483235273
101325.8354509345
101325.8236780737
101325.8132107199
101325.8046830196
101325.7981524976
101325.7943198849
101325.7915007805
101325.7935415141
101325.7972420415
101325.8050580461
101325.8158749292
101325.8301271043
101325.8469760884
101325.8656449196
101325.8844917596
101325.9039571565
101325.9234007803
101325.9423296167
101325.9623531877
101325.9794495687
101325.9992107719
101326.0173172878
101326.0342597608
101326.0508407611
101326.0660337978
101326.0797108705
101326.0915669038
101326.1021263822
101326.110495778
101326.115422597
101326.1188143694
101326.1196253249
101326.1159665725
101326.1104297573
101326.1012735689
101326.089367077
101326.0752971419
101326.0602532059
101326.0444318651
101326.0292208559
101326.0138872962
101325.9986145273
101325.983802635
101325.9669811648
101325.953553653
101325.9395646054
101325.9264630515
101325.9146961519
101325.9037018426
101325.8946963691
101325.8878497179
101325.8830672472
101325.8810201899
101325.880172431
101325.8844282048
101325.8898753176
101325.9006985688
101325.9135529904
101325.9296458568
101325.9476792237
101325.9667733859
101325.9858584968
101326.0052301214
101326.0246281025
101326.0433872899
101326.0635315044
101326.0797467467
101326.0996148138
101326.1172735889
101326.1333191926
101326.1500453048
101326.163217748
101326.1763031079
101326.1871573029
101326.1958777629
101326.2030878103
101326.2059888102
101326.2077981366
101326.2066083668
101326.2051973251
)
;

boundaryField
{
    inlet
    {
        type            calculated;
        value           uniform 101324.9999999998;
    }
    outlet
    {
        type            calculated;
        value           uniform 101326.1978668519;
    }
    frontAndBack
    {
        type            empty;
    }
}


// ************************************************************************* //
