/*--------------------------------*- C++ -*----------------------------------*\
| =========                 |                                                 |
| \\      /  F ield         | OpenFOAM: The Open Source CFD Toolbox           |
|  \\    /   O peration     | Version:  v2012                                 |
|   \\  /    A nd           | Website:  www.openfoam.com                      |
|    \\/     M anipulation  |                                                 |
\*---------------------------------------------------------------------------*/
FoamFile
{
    version     2.0;
    format      ascii;
    class       volScalarField;
    location    "0.016";
    object      rho;
}
// * * * * * * * * * * * * * * * * * * * * * * * * * * * * * * * * * * * * * //

dimensions      [1 -3 0 0 0 0 0];


internalField   nonuniform List<scalar> 
1000
(
1.176300801221335
1.176324585172939
1.176270208945009
1.176224014562504
1.176169822599921
1.176121068266165
1.176080013391461
1.176045187845868
1.176015401575894
1.175994737154428
1.175987399147465
1.175986576456794
1.175989300965628
1.175998478173627
1.176016294280591
1.176042941623406
1.176077382874974
1.176118114273056
1.176163835083533
1.176213598068342
1.17626662456586
1.176322107899757
1.176379134581951
1.176436707169664
1.176493803656791
1.176549427444165
1.176602693160244
1.176652993012169
1.176700101053459
1.176743914242754
1.17678316163382
1.176813136194282
1.176828177821124
1.176831330767333
1.176831249519374
1.176828472168687
1.176821428381204
1.176808124289534
1.176786933860825
1.176757120490207
1.176719061678036
1.176674063969914
1.176623871484558
1.176570147936359
1.176514196058151
1.176456975136295
1.176399281897774
1.17634191420545
1.176285704010533
1.176231382272007
1.17617937563354
1.176129845748835
1.176083381663808
1.176042743665121
1.176014085941898
1.176001325917033
1.175998968294219
1.175999327655
1.176002090799844
1.176008692470776
1.176020718233191
1.176039664433861
1.176066555988325
1.176101643630626
1.176144301678873
1.176193179892948
1.176246542886339
1.176302650515885
1.17636002932458
1.176417570592596
1.176474491936707
1.176530252327336
1.176584521315203
1.176637171872815
1.176688025545622
1.17673613432377
1.176778374007074
1.176808234870337
1.176821379672688
1.176824096311469
1.176824404366598
1.176822389207453
1.17681711479377
1.176807074557428
1.176790851209832
1.176767294079661
1.176735765926159
1.176696303376952
1.176649666765508
1.176597234416203
1.17654075338346
1.176482027356447
1.176422636784632
1.176363760524417
1.176306128696157
1.176250068640474
1.176195628855707
1.176142973140764
1.176093331241599
1.176050608781098
1.176021766371288
1.17600978066362
1.176007480142568
1.176007464105562
1.176009631877948
1.176014930681627
1.176024625628505
1.176039993829549
1.176062132222995
1.176091744184921
1.176128981709747
1.176173367368275
1.176223825094017
1.176278828834522
1.176336643905293
1.176395608261712
1.176454381321891
1.176512082048709
1.17656830513738
1.176623014571643
1.176676090724341
1.176726391314781
1.176770483581134
1.176801721193887
1.176815540248141
1.176818625282433
1.176819346845364
1.176817916684458
1.176813841771176
1.176805786018712
1.17679252231269
1.176772942924303
1.176746212134781
1.176711905960661
1.176670131848635
1.176621582741981
1.176567487055559
1.176509450253575
1.176449208452412
1.17638834606024
1.176328072662154
1.176269126110917
1.176211830949376
1.176156521059295
1.176104599092107
1.176060061831282
1.176029812947793
1.176017075341693
1.176014393346126
1.176013943361216
1.176015569501688
1.176019816095673
1.176027850766546
1.176040777449739
1.176059626749459
1.17608519449031
1.176117916081984
1.17615777094191
1.176204232692651
1.176256288741287
1.176312544195599
1.176371411950902
1.176431360409482
1.176491136983523
1.176549898275632
1.176607219318364
1.17666273386371
1.176715170391424
1.176761135702083
1.176794295384453
1.176809715171874
1.176813452096139
1.176814481334749
1.176813579943469
1.176810468448073
1.176803946702891
1.176792890289974
1.176776263581682
1.17675319924161
1.176723095415031
1.176685728990761
1.176641340774378
1.176590660525834
1.176534857627231
1.176475406925226
1.176413874716211
1.176351690444534
1.176289987561007
1.176229546330131
1.176171075121696
1.176116239121
1.176069154447717
1.176036666659105
1.176022433261374
1.176019169899146
1.176018394937919
1.176019534933357
1.176022886546505
1.176029532205829
1.176040480297866
1.176056696567886
1.176078995573794
1.176107938799901
1.17614374850711
1.176186246686309
1.176234830948366
1.176288503016931
1.176345967559672
1.176405805446175
1.176466671997841
1.176527446937211
1.176587319735153
1.176645595590127
1.176700781054929
1.176749337383773
1.176785087268929
1.176802679780863
1.176807220743516
1.176808432300716
1.176808006677813
1.176805669553154
1.176800403657435
1.17679116092849
1.176776970349912
1.176756977821684
1.176730511108929
1.17669717878783
1.176656955055407
1.176610225232854
1.176557784706119
1.176500778228531
1.176440564787393
1.17637854045436
1.176315991551988
1.17625400638974
1.176193635854117
1.176136811286719
1.176087814789724
1.176053463959485
1.176037814269528
1.176034048254691
1.176033061647411
1.17603377479988
1.176036398606219
1.176041878918552
1.17605112662978
1.176065024310228
1.176084359237772
1.17610974300934
1.176141534104232
1.176179778822748
1.176224174195655
1.176274061767993
1.17632846974431
1.176386219289573
1.176446072574845
1.176506857158881
1.176567555219965
1.17662723797355
1.17668429783225
1.176735101584252
1.176773552022566
1.176793887734799
1.176799614667278
1.176800916396
1.176800963628575
1.176799312582345
1.176795184638832
1.176787620935125
1.176775716759572
1.176758640720092
1.176735681548894
1.176706330637078
1.176670354726685
1.176627842108906
1.176579224736261
1.176525266347775
1.176466994872975
1.176405590188764
1.176342288584664
1.176278317662789
1.176214977971174
1.176154444190518
1.176101346320122
1.176063057036832
1.176044566236905
1.176039832615768
1.176038735457651
1.176039076336846
1.176041107488375
1.176045650983611
1.176053561853221
1.176065666106472
1.176082723734738
1.176105366702122
1.176134033158898
1.176168918711817
1.176209939485822
1.176256709260722
1.176308547009603
1.176364534931303
1.17642361990884
1.176484702333786
1.176546689667004
1.176608487957963
1.176668419978946
1.176722764168862
1.176765174894354
1.176789283799046
1.176796778136083
1.176798160676482
1.176798586233602
1.176797402997496
1.176794116346052
1.176787789342108
1.176777573361723
1.176762655912729
1.176742307155182
1.176715956404127
1.1766832509319
1.176644093688598
1.176598672616667
1.176547473712708
1.176491253714584
1.176430970007154
1.176367720622388
1.176302722642421
1.176237365053669
1.17617383887884
1.17611678991003
1.176073974032389
1.176051579297415
1.17604520206609
1.176044039487172
1.176044008189026
1.176045541714538
1.17604928031062
1.176056026792443
1.176066572769888
1.176081668772178
1.17610196290036
1.176127940496634
1.176159888572918
1.176197867908616
1.17624168566713
1.176290884670497
1.176344771356652
1.176402482884747
1.176463047924904
1.176525406803697
1.176588418707448
1.176650490266028
1.17670811386864
1.176754844312358
1.176783661781635
1.176793930846028
1.176795687651196
1.176796334355531
1.176795579797395
1.176793041686256
1.176787817162342
1.176779095056697
1.176766085484327
1.1767480473966
1.17672436636701
1.176694609486242
1.176658552765338
1.176616206167478
1.176567836828497
1.176513967739792
1.176455339488139
1.176392876323924
1.176327704669558
1.176261207092153
1.176195452794486
1.176134773155753
1.176087000389654
1.176059608399402
1.17605069983712
1.176049274441759
1.176048941503871
1.176050059016863
1.176053088993418
1.176058810824123
1.176067972399089
1.17608131348284
1.176099495588673
1.176123040698308
1.176152303095928
1.176187449730967
1.176228433882007
1.176274975606834
1.176326569346004
1.176382526963701
1.176442024036071
1.176504098148251
1.176567625965174
1.176631114801898
1.176691489560147
1.176742532684758
1.176776622669247
1.176790828867887
1.176793468914173
1.176794194826136
1.176793798837571
1.1767918835833
1.176787610548329
1.176780211694698
1.176768919517193
1.176752974192648
1.176731716991916
1.176704655008709
1.176671476684887
1.176632063152665
1.176586512958238
1.176535157900573
1.176478547569878
1.176417431441931
1.176352798851114
1.176285948516394
1.176218758527761
1.176155015834967
1.176102267834037
1.176069161215231
1.176056599632526
1.176054451318045
1.176053954832223
1.176054716770222
1.176057115538309
1.17606191647998
1.176069828324469
1.176081578249344
1.176097842131894
1.176119171844333
1.176145969079877
1.176178477216976
1.176216761077632
1.176260682171833
1.176309891237659
1.176363853056021
1.176421882466841
1.176483132661715
1.176546547968764
1.176610756120051
1.176673216958408
1.176728281207669
1.176767839601384
1.176787082838793
1.17679146197218
1.176792179534337
1.176792080841102
1.176790697981149
1.176787264377746
1.176781045367301
1.176771295412476
1.176757246562306
1.176738206220242
1.176713631688554
1.176683142086424
1.176646520133083
1.176603733350154
1.176554958882662
1.176500586254234
1.176441207217504
1.176377656841558
1.176311107350446
1.176243255466292
1.176177278396707
1.17611993069726
1.176080652642167
1.176063224205939
1.176059531834452
1.176058960642157
1.176059436452011
1.176061311984779
1.176065312419952
1.176072107354089
1.176082406171556
1.17609690388306
1.176116186413955
1.17614069574301
1.176170733247055
1.17620644989842
1.17624781948431
1.176294620304532
1.176346445476424
1.176402732351783
1.176462755154034
1.176525564068079
1.176589897452141
1.176653672024164
1.176712143701321
1.176757125072543
1.176782159844227
1.176789558548685
1.176790320152773
1.176790450109413
1.176789485398056
1.176786750019129
1.176781550043865
1.176773177317889
1.176760866506668
1.176743885698494
1.176721634339737
1.176693670372492
1.176659703577329
1.176619603383515
1.176573424115303
1.17652142137329
1.176464049412158
1.176401994586466
1.176336280745467
1.176268419758065
1.176201021716828
1.176139767804944
1.176094269557525
1.176071017782592
1.176064704387325
1.176064031874022
1.176064222605049
1.176065652551712
1.176068946277021
1.176074740962227
1.176083720897837
1.176096590970622
1.17611396968824
1.176136338030709
1.176164046211786
1.176197313656862
1.176236204809262
1.17628060486141
1.176330216724126
1.176384583127194
1.176443092225753
1.176504911067969
1.176568884784013
1.176633265537965
1.176694342037249
1.176744470112396
1.17677564917912
1.176787269233075
1.176788706696972
1.176788896298066
1.176788221850888
1.176786080864958
1.176781763484514
1.176774619115888
1.17676389020364
1.176748813177075
1.176728738272002
1.176703168897419
1.176671750046859
1.176634268314658
1.176590675853462
1.176541114861513
1.176485923096549
1.176425653021645
1.176361174573807
1.176293824578199
1.17622577544709
1.176161587685374
1.17611026089928
1.176080471200988
1.176070314624681
1.176069061457322
1.176069113835802
1.176070179543965
1.176072880951405
1.176077802914719
1.176085592058862
1.176096957058106
1.176112552961061
1.176132903926447
1.176158402556378
1.176189321900443
1.176225800555296
1.176267815191299
1.176315166078747
1.176367490505155
1.176424275431594
1.176484797099802
1.176548022391497
1.176612463814245
1.176675265730763
1.176729869591607
1.176767268578217
1.176784192348247
1.176787392973275
1.176787453624732
1.176787017101847
1.176785344220635
1.176781779370966
1.176775705611708
1.176766399752258
1.176753088004973
1.176735071606378
1.176711789628757
1.176682820989932
1.17664788284287
1.176606846074191
1.176559758377646
1.176506856383164
1.176448577726692
1.176385648451394
1.176319230676056
1.176251156922142
1.176185025158287
1.176128561093124
1.176091855823566
1.176076779424844
1.176074105776288
1.176074069469754
1.176074834086231
1.176077030249434
1.176081200241247
1.176087941832669
1.176097947367121
1.176111897541589
1.176130355158912
1.176153752416369
1.176182410893534
1.17621653436606
1.176256180117168
1.17630123775228
1.176351431073342
1.176406330925309
1.17646532236793
1.176527508519176
1.176591575663735
1.17665524896397
1.176713393670816
1.176756930288104
1.176779894829811
1.17678599814741
1.176786229277174
1.176785915857385
1.176784559548402
1.176781612539653
1.176776455850802
1.176768413350429
1.176756709479575
1.176740604529171
1.176719485336507
1.176692875051113
1.176660424805015
1.176621926478975
1.176577338434302
1.176526805490245
1.176470669340657
1.176409522300149
1.176344354063987
1.176276755996234
1.176209587029196
1.176149034592257
1.176105460713264
1.176084455154113
1.176079177397394
1.176078946972515
1.176079502071696
1.176081277122439
1.176084811139835
1.176090638897607
1.176099418907418
1.176111849066543
1.176128532486731
1.176149941523925
1.176176438920765
1.176208281440647
1.17624559566443
1.176288352341419
1.176336357309087
1.176389262551397
1.176446555044406
1.17650745383796
1.176570780625969
1.176634698590626
1.176695355015698
1.176744526980479
1.176773848412947
1.176784199849916
1.176785347350565
1.17678492608604
1.176783845397468
1.17678137183295
1.176776960671919
1.176769994583159
1.176759719608443
1.17674537755223
1.176726308750439
1.176701973509642
1.176671952295851
1.176635963880958
1.176593889202666
1.176545789842078
1.176491917168945
1.176432743435244
1.176369102278653
1.17630237900361
1.176234869273918
1.176171378081419
1.176121457396008
1.176093777704558
1.17608473086231
1.176083795539797
1.17608427424219
1.176085652458852
1.176088640246977
1.176093679182229
1.176101372967703
1.176112418983786
1.176127456258377
1.176146994811551
1.176171432823436
1.176201071428286
1.176236096825041
1.176276552602846
1.176322323841671
1.176373141024177
1.176428576747278
1.176487967550643
1.176550292356119
1.176614001205885
1.17667611776736
1.176729943382695
1.176765914385609
1.176781723502492
1.176784487260991
1.17678417658246
1.176783255258983
1.176781134049771
1.17677732558668
1.17677126361547
1.176762251450547
1.176749516122168
1.176732352504276
1.176710171145189
1.176682496794921
1.176648980603638
1.176609425870944
1.176563810061983
1.176512298060512
1.176455261389601
1.176393380543446
1.176327839814748
1.176260577824499
1.176195336549537
1.176140041352936
1.176105038177508
1.176091101918173
1.176088677089041
1.176089022537316
1.176090102998367
1.176092647950056
1.176097030524169
1.176103787345065
1.176113586223539
1.176127093074123
1.176144862883234
1.176167335699284
1.176194854276524
1.176227653230856
1.176265834814904
1.176309352357586
1.17635800700887
1.176411451159274
1.176469146248952
1.176530223196054
1.176593306593269
1.176656037339694
1.176713361098452
1.176755963662836
1.17677775496926
1.176783559986656
1.176783756598608
1.176782880682266
1.176781020393399
1.176777664616155
1.176772325789107
1.176764376644446
1.176753063755523
1.176737658068288
1.17671752219874
1.176692115083294
1.176661012178923
1.176623943686852
1.176580817214173
1.176531725485937
1.17647695409353
1.176417040810383
1.17635296785251
1.176286405381252
1.176220293415059
1.176160814086092
1.176118495628387
1.17609872594898
1.176093707267445
1.176093599947495
1.176094518924691
1.176096662724149
1.176100510903506
1.176106477891363
1.176115179271419
1.176127288071418
1.176143399226085
1.176164001194627
1.176189485791086
1.176220136742369
1.176256105869333
1.176297398409494
1.176343870694803
1.176395238760422
1.176451060611214
1.176510614988407
1.176572730585148
1.176635519840034
1.176695136137206
1.17674354365644
1.17677199303331
1.176782323550507
1.176783431490599
1.17678268851115
1.176781103154439
1.176778080596488
1.176773265951798
1.176766156324522
1.176756067279639
1.176742257305153
1.176724038776376
1.17670080574432
1.176672058028686
1.17663744446534
1.176596797184619
1.176550144197101
1.176497707348163
1.176439920880991
1.176377582501389
1.176312106239985
1.176245860540661
1.176183618588118
1.176134724222771
1.176107955704109
1.176099153533805
1.176098057212748
1.176098828893926
1.176100595820438
1.176104037001859
1.176109409345688
1.176117224217611
1.176128109664992
1.176142677915083
1.176161470873996
1.176184954796554
1.176213490737285
1.176247293989553
1.176286416793025
1.176330752098284
1.176380047427405
1.176433915401237
1.176491765845012
1.176552630979993
1.176614929901805
1.176675695769018
1.176728659128639
1.176764332105664
1.17677981330871
1.176783121640093
1.176782848372449
1.176781465984469
1.176778743364526
1.176774319592623
1.176767816736559
1.176758671146207
1.176746210301735
1.176729751097761
1.17670862715115
1.176682227150428
1.176650074652647
1.176611901179843
1.176567669231547
1.17651756028311
1.1764619633766
1.176401548123362
1.176337484433666
1.176271730821305
1.176207970026481
1.176153766892132
1.176119294459453
1.176105726393613
1.176102955463386
1.176103031539748
1.176104484525896
1.17610750119028
1.17611241141757
1.176119578641519
1.176129521788423
1.176142789352226
1.176159912241344
1.176181413644417
1.176207773572301
1.176239342503887
1.176276273503476
1.176318510634214
1.17636581169327
1.176417784807378
1.176473885957658
1.176533278673476
1.176594646326623
1.176655761668006
1.176711806586309
1.176754031794253
1.176775744683956
1.176782277756874
1.176783008223248
1.176782065575897
1.176779821883949
1.176775746119698
1.17676963520125
1.176761098623613
1.176749615760198
1.176734592707198
1.176715385066372
1.176691318240152
1.176661758856628
1.176626228386935
1.176584510786481
1.176536707290059
1.176483212743776
1.176424676806975
1.17636214723125
1.176297306005895
1.176232964735897
1.17617502865435
1.176133442846349
1.176113726944132
1.176108353085264
1.176107536882338
1.176108320765461
1.176110674481026
1.176115033563682
1.176121699016344
1.17613103718165
1.176143431834624
1.176159274118413
1.176179013838826
1.176203183644058
1.176232321226295
1.176266821993004
1.176306814134706
1.176352121402282
1.176402315777733
1.176456807833294
1.176514801327848
1.176575106780746
1.176635929583153
1.17669371340925
1.176741027934213
1.176769760300091
1.17678037007163
1.176782270690139
1.176782400021675
1.176781002097649
1.176777728581424
1.17677215408959
1.17676397042791
1.176752890927494
1.176738629817785
1.176720806846143
1.176698848452785
1.176672003313957
1.176639492245608
1.176600722089524
1.176555477740991
1.17650404975342
1.176447189354014
1.176386029527658
1.176322184306203
1.176257909757663
1.176197611663427
1.176150127525927
1.176123338244234
1.176114342863117
1.176112927047161
1.176112916867472
1.17611430886082
1.176117556479891
1.17612317957086
1.176131737700582
1.176143665712658
1.176159153710354
1.176178225374205
1.176200954832033
1.176227653049308
1.176258941277792
1.176295646921556
1.176338350524013
1.176386690285542
1.176439077850051
1.176494945296255
1.176553259536613
1.176623347996972
)
;

boundaryField
{
    inlet
    {
        type            calculated;
        value           uniform 1.176395950917642;
    }
    outlet
    {
        type            calculated;
        value           uniform 1.176655759080188;
    }
    frontAndBack
    {
        type            empty;
    }
}


// ************************************************************************* //
