/*--------------------------------*- C++ -*----------------------------------*\
| =========                 |                                                 |
| \\      /  F ield         | OpenFOAM: The Open Source CFD Toolbox           |
|  \\    /   O peration     | Version:  v2012                                 |
|   \\  /    A nd           | Website:  www.openfoam.com                      |
|    \\/     M anipulation  |                                                 |
\*---------------------------------------------------------------------------*/
FoamFile
{
    version     2.0;
    format      ascii;
    class       volScalarField;
    location    "0.016";
    object      T;
}
// * * * * * * * * * * * * * * * * * * * * * * * * * * * * * * * * * * * * * //

dimensions      [0 0 0 1 0 0 0];


internalField   nonuniform List<scalar> 
1000
(
299.9863166706734
299.9876122929259
299.9808952856135
299.9761214344484
299.9716859393687
299.9678362490721
299.9643175690155
299.961154064349
299.9584510144247
299.9567164520316
299.956265417702
299.9565069530307
299.9571584150162
299.9582984935075
299.9602083029147
299.9629818016862
299.9665172321064
299.970655218676
299.9752655771539
299.9802583467016
299.9855614927255
299.9911004155924
299.996791565685
300.0025455902918
300.0082708827804
300.0138744288125
300.0192684750838
300.024388850513
300.0292079614188
300.0337095395287
300.0377576109162
300.0408676876255
300.0424553263645
300.042811171995
300.0428368407057
300.0425941598411
300.0418939352987
300.0405385928784
300.0383722394117
300.0353202540091
300.0314217342532
300.0268123164351
300.021672328721
300.0161733693926
300.010449744633
300.0046003321477
299.9987070114584
299.9928512493052
299.9871173878573
299.9815789655393
299.9762782138853
299.9712303304409
299.9664943810968
299.9623514654585
299.9594294768617
299.9581283734519
299.9578879400433
299.9579236805578
299.9582032700283
299.9588740470667
299.9600988009331
299.9620305207983
299.9647738321823
299.9683543467816
299.9727081501094
299.9776972848335
299.9831444503999
299.9888718604062
299.9947289493848
300.0006023871588
300.0064121871826
300.0121030633531
300.0176412945497
300.0230139723003
300.0282029700127
300.033111652073
300.0374213356818
300.0404678932856
300.0418088797933
300.0420859445494
300.0421173170172
300.0419117110583
300.0413736533531
300.0403493469115
300.0386941170107
300.0362905314198
300.0330735359522
300.0290468238605
300.0242879344015
300.018937474319
300.0131736899779
300.0071806252347
300.0011195616648
299.9951108126326
299.9892289042393
299.9835072581624
299.977950836012
299.9725763662636
299.9675093812993
299.9631485640357
299.9602044727564
299.9589810240698
299.9587462014058
299.9587445706264
299.9589658555685
299.9595067390144
299.9604963599085
299.9620650752865
299.9643248404042
299.9673474271749
299.9711483154264
299.9756787306628
299.9808287942472
299.9864427056714
299.9923433847916
299.998361183446
300.0043592793628
300.0102477633156
300.015985284244
300.0215681798874
300.0269842559335
300.0321169674308
300.0366160657054
300.0398034322996
300.0412134601098
300.0415282441446
300.04160187286
300.041455952572
300.0410401749949
300.0402182087724
300.0388648401313
300.0368670290457
300.0341394807871
300.0306389024383
300.0263762179624
300.0214220905087
300.0159018262897
300.0099792178386
300.0038314070746
299.997620073019
299.9914686597101
299.9854524799379
299.9796046706202
299.9739593249984
299.9686596298763
299.9641135790496
299.9610259228049
299.9597257185296
299.9594519546286
299.9594060267057
299.9595720235289
299.9600055063459
299.9608256573239
299.9621451573588
299.9640691946175
299.9666789835363
299.9700189402265
299.974086927716
299.9788291766611
299.9841422906977
299.9898838609633
299.9958918742432
300.0020099993629
300.008110396938
300.0141070006516
300.0199564537406
300.0256213957725
300.0309720951958
300.0356623418817
300.0390458457132
300.0406192113618
300.0410005136962
300.0411055374163
300.0410135714166
300.0406960979153
300.0400306553808
300.0389025107513
300.0372059843338
300.0348525602581
300.0317808025706
300.0279679119563
300.0234384192345
300.0182667458417
300.0125721775008
300.006505181852
300.0002255743483
299.9938792218207
299.9875817996032
299.9814129499329
299.9754449864243
299.9698478932191
299.9650418473375
299.9617256700708
299.9602727872904
299.9599396827705
299.9598605843665
299.9599769587063
299.9603190867579
299.9609974540176
299.9621149898578
299.9637702648399
299.9660464098116
299.9690007153396
299.9726558378628
299.9769935705568
299.9819523869593
299.9874303554693
299.9932952333307
299.9994021553513
300.0056138701092
300.0118160428843
300.0179259623948
300.0238727368449
300.0295039874914
300.0344586527032
300.0381064730033
300.039901541184
300.0403648864027
300.040488514458
300.0404450945479
300.0402066353496
300.0396693339785
300.0387262499136
300.0372782985572
300.0352383181011
300.0325376962226
300.029136465293
300.0250319570488
300.0202634491339
300.014912062542
300.0090945744687
300.0029496347208
299.9966196921254
299.9902360114409
299.9839096642989
299.9777479166864
299.9719479147931
299.9669467744588
299.9634404600938
299.9618430214768
299.9614586117657
299.9613579102793
299.961430714237
299.9616985504251
299.9622579614229
299.9632019254487
299.9646205249866
299.9665941093118
299.9691850886639
299.9724300293307
299.9763336257872
299.9808649175034
299.9859566588387
299.9915096260429
299.9974034721489
300.0035118409164
300.0097150631607
300.0159092631549
300.0219996639285
300.0278222329805
300.0330062636656
300.0369296667273
300.0390046504227
300.0395890086553
300.0397218371188
300.0397266647107
300.039558209697
300.0391370189375
300.0383652540002
300.0371505975502
300.0354082078074
300.0330654940256
300.0300705368299
300.0263995052431
300.0220613722762
300.0171001747651
300.0115938065828
300.0056471262517
299.9993805076763
299.9929200946281
299.9863911598055
299.9799264377874
299.9737479014144
299.9683281687938
299.9644198627486
299.9625324239212
299.9620492461469
299.9619372593754
299.9619720620497
299.9621794018366
299.9626431858976
299.9634506903552
299.9646862256906
299.9664273582646
299.9687385805627
299.9716645952626
299.9752253411481
299.9794122241817
299.9841857867883
299.9894764813566
299.9951905979102
300.0012206235401
300.0074543113165
300.0137801489924
300.0200864946389
300.0262022006976
300.0317475364537
300.0360750589151
300.038535050453
300.0392997461683
300.0394408205527
300.0394842494014
300.0393635256278
300.0390281763427
300.0383825984427
300.0373401992081
300.0358180675018
300.0337417205662
300.0310529088976
300.0277156153754
300.0237199046942
300.0190849167922
300.013860203343
300.0081229450706
300.001970803399
299.9955158020264
299.9888821276025
299.982211528278
299.9757276327363
299.969904658621
299.9655343356517
299.9632484109204
299.9625974606581
299.9624787952582
299.9624756072101
299.9626321503198
299.9630137724128
299.9637024204148
299.964778894227
299.9663197959815
299.9683912678544
299.9710428328884
299.9743037635322
299.9781802341644
299.9826525279344
299.9876739451088
299.993173660337
299.99906357559
300.0052445282101
300.0116083505629
300.0180386082785
300.0243727010007
300.0302527179995
300.0350210454371
300.037961492235
300.0390093088276
300.039188570679
300.0392545627084
300.0391775775274
300.0389186055332
300.0383855194995
300.0374955492854
300.0361680923542
300.0343275246689
300.0319111366882
300.0288747335645
300.0251954310835
300.0208742109779
300.015938292869
300.0104410033937
300.0044578758778
299.9980831919723
299.991431875821
299.9846450086576
299.9779337729109
299.9717402786567
299.9668640304321
299.9640680263264
299.9631586903257
299.9630131973966
299.9629792178195
299.9630932940856
299.9634025829734
299.9639866383743
299.9649217984904
299.9662835681888
299.9681394607622
299.9705427419244
299.9735295540257
299.9771169116332
299.9813000144595
299.9860502541204
299.9913159932416
299.9970269618199
300.0030989850612
300.0094338135477
300.0159167876208
300.0223955718471
300.0285563776935
300.0337648037464
300.0372432564769
300.0386928023166
300.0389621849901
300.0390362577114
300.0389958576225
300.0388004382563
300.0383644376451
300.0376094867353
300.03645726784
300.0348302432183
300.0326611855274
300.0298997813297
300.0265142146028
300.0224923243853
300.0178441291123
300.0126034455153
300.006826314227
300.0005891764516
299.9939929584033
299.9871701737404
299.9803124869086
299.9738064225483
299.9684223914516
299.9650430926376
299.9637608776603
299.9635415920236
299.9634909166957
299.9635686956207
299.9638135530305
299.964303608142
299.9651112019275
299.9663105555145
299.9679706499769
299.9701478043096
299.9728830029126
299.9762010647355
299.9801085775762
299.9845913727358
299.9896137660095
299.9951210933709
300.0010433900987
300.007294199744
300.0137657604328
300.0203180161992
300.0266917539821
300.0323105404665
300.0363469974465
300.0383105068654
300.0387573371316
300.0388305565024
300.0388204897802
300.0386793930033
300.0383290445417
300.0376944805507
300.0366996257608
300.0352661146919
300.0333232665337
300.0308156901858
300.027704499412
300.0239674945183
300.0196013265991
300.0146240322642
300.0090753176265
300.0030155259291
299.9965298349496
299.9897378403397
299.9828126848426
299.9760786436507
299.9702251779914
299.9662159697132
299.9644369792011
299.9640600839454
299.9640017818557
299.9640503528477
299.9642418001836
299.9646501432193
299.9653437283752
299.9663949613964
299.9678747777569
299.9698429742651
299.9723446498109
299.9754105461422
299.9790560472398
299.9832784466598
299.9880550812799
299.9933443856019
299.9990888969934
300.0052145076029
300.0116242527353
300.0181893579218
300.0246972215901
300.0306637594284
300.0352535970908
300.0378080621157
300.03856299547
300.0386407079684
300.0386539705951
300.0385555384357
300.0382764338255
300.0377458484064
300.0368915220675
300.0356353575464
300.0339026643308
300.0316321503948
300.0287786901515
300.0253126444992
300.0212206579516
300.0165082361183
300.0112014196233
300.005346519398
299.9990135335247
299.9923069091014
299.985380913497
299.9785019257098
299.9722498255244
299.9676057470887
299.9652323562372
299.9645879216926
299.964519276257
299.9645387467583
299.9646847101085
299.9650209158174
299.965612401271
299.9665290111786
299.9678426900944
299.9696165621357
299.9718997092792
299.9747278607696
299.9781233904065
299.9820928473653
299.9866244804136
299.9916879307542
299.9972364903074
300.0032076768346
300.0095164478849
300.016044918701
300.0226147098888
300.0288471102759
300.0339621514167
300.0371435749655
300.0383292384556
300.0384759115034
300.0384952589678
300.0384264436123
300.0382079885769
300.0377674605365
300.0370384727198
300.035943722569
300.0344052907376
300.0323568660568
300.0297477612418
300.0265417295145
300.0227169659603
300.0182685528399
300.0132109601018
300.007578610631
300.0014278373012
299.9948473756694
299.9879736208896
299.9810282692858
299.9744767956235
299.9692378416976
299.9661971211733
299.9651603994008
299.9650324834882
299.9650378307754
299.9651466136618
299.9654223585266
299.9659247615848
299.9667198230687
299.9678798749609
299.9694717725372
299.9715490069116
299.9741516362332
299.9773075103486
299.9810307498014
299.9853189424279
299.9901516677583
299.9954918687443
300.0012871461369
300.0074635984686
300.0139157608916
300.0204918138399
300.0269003475663
300.0324721459673
300.0362882552928
300.0380150933466
300.0383416712162
300.0383478601052
300.0383033205302
300.0381326285535
300.0377688861907
300.0371491404806
300.0361995959991
300.0348412921172
300.0330029197389
300.0306272292752
300.0276712346521
300.02410604827
300.0199184625885
300.0151133058682
300.0097146821597
300.0037672058861
299.9973449252794
299.9905663998038
299.9836186263373
299.9768688204099
299.9711055667656
299.967358983231
299.9658200818659
299.9655471717026
299.9655434657007
299.9656215137175
299.9658456856541
299.9662713320303
299.9669594664015
299.9679807543203
299.9694046700456
299.971288650642
299.9736767978023
299.976601917335
299.980084785196
299.9841312195333
299.9887299195908
299.9938526590569
299.9994555996905
300.0054759439532
300.0118221263991
300.0183600548481
300.0248575771794
300.0307907437113
300.0352331551431
300.0375763794572
300.0381991359021
300.038222718896
300.0381907392685
300.0380523486452
300.0377516489918
300.0372254791317
300.0364048458028
300.0352106086326
300.0335672820648
300.0314122886211
300.0286969543148
300.0253856578127
300.0214571327747
300.0169070942052
300.0117502787895
300.0060215105582
299.9997811892343
299.993130273436
299.9862311397717
299.9793755608563
299.9731950851814
299.9687474495358
299.9666033490667
299.9660646286999
299.9660411077918
299.9660977687299
299.9662789552638
299.9666396851304
299.9672345415015
299.9681307369522
299.969399502281
299.97110239026
299.9732876033469
299.9759921510259
299.9792422201396
299.9830507043968
299.9874145872091
299.9923140165287
299.9977134356932
300.0035604476625
300.0097753155286
300.0162377604963
300.0227603203567
300.0289498508976
300.0339673273108
300.0369592017506
300.038015420805
300.0381325060021
300.0380895210747
300.0379792523313
300.0377268606242
300.0372767621827
300.0365659637192
300.0355175296629
300.0340540894086
300.0321083224084
300.0296251447047
300.0265617271497
300.0228893463691
300.0185958195832
300.0136873914122
300.0081896695004
300.0021508007379
299.9956558147306
299.9888460518505
299.9819557847504
299.9754754387678
299.9703800316914
299.9675547013714
299.9666312599938
299.9665357872888
299.9665846491255
299.9667253280812
299.9670303017205
299.9675446404269
299.9683299624525
299.9694574464115
299.9709923120728
299.9729866077111
299.9754809618162
299.9785060924405
299.9820809808609
299.9862100472721
299.9908815292239
299.9960678827658
300.0017254491908
300.0077864804269
300.0141467389936
300.0206480289954
300.0269866229955
300.0324790073497
300.0361494074792
300.0377625110715
300.0380445123694
300.0380128109773
300.0379188023694
300.0377023632459
300.0373137624755
300.0366952185672
300.0357756403845
300.0344761508799
300.0327247922282
300.0304614052578
300.0276374781523
300.0242173903898
300.0201810399732
300.0155260906247
300.0102693259604
300.0044486138242
299.9981333535746
299.9914443663561
299.9845794756674
299.9779205925917
299.9722766759278
299.9687038498023
299.967281335774
299.9670338247215
299.9670690843258
299.9671793689606
299.9674391394099
299.9678864804843
299.9685761637051
299.9695763499629
299.9709550043268
299.9727687660808
299.9750625388265
299.9778712907856
299.9812189474619
299.9851159190645
299.9895574110072
299.9945230931899
299.9999774511198
300.0058654827993
300.0120984593999
300.0185359920741
300.0249373290245
300.0307867250794
300.0351338279311
300.0373573401577
300.0379496597512
300.0379697198367
300.037880343262
300.0376905259953
300.0373481150518
300.0368033587182
300.0359922494262
300.0348379051204
300.0332659278309
300.0312112694363
300.0286187050071
300.0254448929556
300.0216622749325
300.017261388705
300.0122516565683
300.0066621784277
300.0005477883374
299.9940086811025
299.9872152740876
299.9804676139144
299.9743967042761
299.970077238171
299.9680593014602
299.9675470295923
299.9675360735515
299.9676298741626
299.9678486964237
299.9682414893772
299.9688505519637
299.9697387145879
299.970974669153
299.9726191336067
299.974721954265
299.9773231086144
299.980451536921
299.9841227109264
299.988337136262
299.9930801166385
299.9983226343145
300.0040195426046
300.0100971969832
300.0164360327287
300.0228434087857
300.0289268027209
300.0338662789337
300.0367691732719
300.0378232588826
300.0379363071809
300.0378604951449
300.0376987304547
300.0373903198333
300.0368990500049
300.0361736041606
300.0351441406018
300.0337349912915
300.0318759832714
300.0295052730019
300.0265718036122
300.0230397170938
300.0188918521546
300.0141310295888
300.0087798456994
300.0028825697252
299.9965205649206
299.9898381031585
299.9830768841403
299.9767240837355
299.9717334676454
299.9690011623792
299.9681027021156
299.9679907964359
299.9680695621624
299.9682499146306
299.9686011625599
299.9691495272112
299.9699472014627
299.971058286667
299.9725452670103
299.9744634457315
299.9768604003103
299.9797729656827
299.9832230939538
299.9872160898449
299.9917409961344
299.9967720100738
300.0022695598738
300.0081733783075
300.0143846679409
300.0207420749232
300.0269428402204
300.0323472446888
300.0359872388352
300.0375668844591
300.0379044523982
300.0378765675169
300.0377355114566
300.0374577038892
300.0370063166495
300.036342784129
300.0354095896787
300.03413810609
300.0324586231579
300.0303031329215
300.0276092413577
300.024328309619
300.0204329125905
300.0159191881306
300.0108056144801
300.0051318490191
299.9989661821943
299.9924279684706
299.9857170617545
299.979209325441
299.9736769137348
299.9701582881056
299.9687733675377
299.9684905317505
299.9684982958366
299.9686466034408
299.968954519456
299.9694557144769
299.9701872820629
299.9712021858601
299.9725564055552
299.9743041231455
299.9764987291332
299.9791892023576
299.9824112951716
299.9861806048722
299.9904913922466
299.9953189041104
300.0006231108204
300.0063484561488
300.012409541924
300.0186719793579
300.0249084719949
300.0306273778019
300.0349359827213
300.0371514967587
300.0378181054741
300.0378926382876
300.0377964525631
300.0375675125779
300.0371516343635
300.0365280940501
300.0356570424915
300.0344853519949
300.0329524156647
300.0309924710352
300.0285366694399
300.0255203623738
300.0218946937919
300.0176375842531
300.0127593246136
300.0073001646439
300.0013263582658
299.99494479105
299.9883270896881
299.9817601947132
299.9758468427006
299.9716021926896
299.9695897618662
299.9690412405193
299.9689579280462
299.9690379389517
299.9692781849401
299.9697231219387
299.9704034715153
299.9713566231285
299.9726217441167
299.9742387518331
299.9762535485975
299.9787204885208
299.981694435175
299.9852157230702
299.9892974067819
299.9939214642236
299.9990441759526
300.0046053506196
300.0105236943355
300.0166777909437
300.0228844883057
300.0287808883128
300.0336088382739
300.0365406140251
300.0376232003323
300.037817139605
300.0378303503173
300.0376877395526
300.0373537608598
300.0367849980282
300.0359499926017
300.0348194755224
300.0333642647385
300.0315455361618
300.029304742512
300.0265652017413
300.0232473962797
300.0192908022634
300.0146734888289
300.0094251419659
300.0036224723838
299.9973811644917
299.990866029495
299.9843074098383
299.9781548921663
299.9733101553554
299.9705773013246
299.9696601633568
299.969516110774
299.9695147344634
299.969654418099
299.9699798062878
299.9705429520479
299.9714009108794
299.9726008359019
299.9741675489925
299.976105691194
299.978414442574
299.9811102193187
299.984255237809
299.987969211095
299.9923852027543
299.9975633630891
300.0033891507862
300.0095278851293
300.0151498915095
300.0208098589338
)
;

boundaryField
{
    inlet
    {
        type            fixedValue;
        value           uniform 300;
    }
    outlet
    {
        type            temperatureOutletNSCBC;
        pInf            101325;
        gamma           1.4;
        etaAc           1;
        fieldInf        1;
        lInf            2.25;
        value           uniform 300.0235501580848;
    }
    frontAndBack
    {
        type            empty;
    }
}


// ************************************************************************* //
