/*--------------------------------*- C++ -*----------------------------------*\
| =========                 |                                                 |
| \\      /  F ield         | OpenFOAM: The Open Source CFD Toolbox           |
|  \\    /   O peration     | Version:  v2012                                 |
|   \\  /    A nd           | Website:  www.openfoam.com                      |
|    \\/     M anipulation  |                                                 |
\*---------------------------------------------------------------------------*/
FoamFile
{
    version     2.0;
    format      ascii;
    class       volVectorField;
    location    "0.016";
    object      U;
}
// * * * * * * * * * * * * * * * * * * * * * * * * * * * * * * * * * * * * * //

dimensions      [0 1 -1 0 0 0 0];


internalField   nonuniform List<vector> 
1000
(
(-0.003616786663804062 0 0)
(-0.03521476552348907 0 0)
(-0.04305679259409671 0 0)
(-0.05833492531983559 0 0)
(-0.07236254195398716 0 0)
(-0.08522711570004328 0 0)
(-0.0961487995171334 0 0)
(-0.1055273577195378 0 0)
(-0.1135534150366949 0 0)
(-0.1190599815279658 0 0)
(-0.1208280168709129 0 0)
(-0.1207497923764226 0 0)
(-0.1199495147653127 0 0)
(-0.1174733192827184 0 0)
(-0.1126693993456072 0 0)
(-0.1053695698895797 0 0)
(-0.09583779026221395 0 0)
(-0.08448691574627303 0 0)
(-0.07167017402892341 0 0)
(-0.05764205885696087 0 0)
(-0.04261716370721858 0 0)
(-0.02682907308400606 0 0)
(-0.01055130246577149 0 0)
(0.005912680231604632 0 0)
(0.02224873544053758 0 0)
(0.03814845284580351 0 0)
(0.05333888879873348 0 0)
(0.06763421866753024 0 0)
(0.08096580205453101 0 0)
(0.09332443875824287 0 0)
(0.1043767534202946 0 0)
(0.1127062788826891 0 0)
(0.1166971053028526 0 0)
(0.1174426919246133 0 0)
(0.1171635858551158 0 0)
(0.1164407937560366 0 0)
(0.1145884346985517 0 0)
(0.1110227325450929 0 0)
(0.1052394350161304 0 0)
(0.09698295455888507 0 0)
(0.08633032912549411 0 0)
(0.07364033155837801 0 0)
(0.05940854112971862 0 0)
(0.04411493816253591 0 0)
(0.02814155931196768 0 0)
(0.01177716179240912 0 0)
(-0.004731328520774171 0 0)
(-0.02113378016928847 0 0)
(-0.03717140204187686 0 0)
(-0.05262182914496769 0 0)
(-0.06736081973623603 0 0)
(-0.08134593257048429 0 0)
(-0.09442768932285323 0 0)
(-0.1058491536517685 0 0)
(-0.1137891965050116 0 0)
(-0.1171034304278736 0 0)
(-0.1175935367932826 0 0)
(-0.1173783253061143 0 0)
(-0.1167218171047007 0 0)
(-0.1151135158312989 0 0)
(-0.1120513612149011 0 0)
(-0.1070565056683227 0 0)
(-0.09978294602851824 0 0)
(-0.09011635603251829 0 0)
(-0.07820652427304386 0 0)
(-0.06442449068737696 0 0)
(-0.04926417720711091 0 0)
(-0.03323197341145407 0 0)
(-0.01676737044592076 0 0)
(-0.0002125612092717438 0 0)
(0.01617951747829266 0 0)
(0.03222458160908573 0 0)
(0.04780370308890314 0 0)
(0.06286491381125717 0 0)
(0.07734839022629596 0 0)
(0.09098765441799354 0 0)
(0.1028905764492416 0 0)
(0.1111229931332727 0 0)
(0.1144842458897659 0 0)
(0.1150142591552134 0 0)
(0.114679230858299 0 0)
(0.114043295029133 0 0)
(0.112590089902018 0 0)
(0.1099063567945597 0 0)
(0.1055427112003598 0 0)
(0.09912041068536001 0 0)
(0.09041239061865268 0 0)
(0.07939477288151983 0 0)
(0.06626341963331867 0 0)
(0.05140420901067357 0 0)
(0.03532079728386856 0 0)
(0.01854303231088157 0 0)
(0.001543575881742156 0 0)
(-0.01531704935637978 0 0)
(-0.03180814967686315 0 0)
(-0.04782019292783832 0 0)
(-0.06333094226749104 0 0)
(-0.07828869786487484 0 0)
(-0.09234616343621774 0 0)
(-0.1043877326592649 0 0)
(-0.1123478863651143 0 0)
(-0.1153975284929679 0 0)
(-0.1158440144247744 0 0)
(-0.1155605858402494 0 0)
(-0.1149868486238069 0 0)
(-0.113659654055157 0 0)
(-0.1112116291751774 0 0)
(-0.107231032326648 0 0)
(-0.1013505675730698 0 0)
(-0.09331893192446095 0 0)
(-0.08305059329409219 0 0)
(-0.07065122562263423 0 0)
(-0.05641118817187062 0 0)
(-0.04076422745511007 0 0)
(-0.02421765681433583 0 0)
(-0.007268791040617117 0 0)
(0.009670310634332616 0 0)
(0.02631592086337963 0 0)
(0.04252149923614124 0 0)
(0.05825175586481102 0 0)
(0.07345519395557953 0 0)
(0.08779761727061311 0 0)
(0.1002738665668879 0 0)
(0.108915781550211 0 0)
(0.1124797609574318 0 0)
(0.1130534827101986 0 0)
(0.1127516863045712 0 0)
(0.1121736619139796 0 0)
(0.110955830890312 0 0)
(0.1087551388571036 0 0)
(0.1051875676029651 0 0)
(0.09989334407951107 0 0)
(0.09258635892177279 0 0)
(0.08310222874224851 0 0)
(0.07143718610208619 0 0)
(0.05776641315194421 0 0)
(0.04243132551562594 0 0)
(0.02589432656974463 0 0)
(0.008666549999015928 0 0)
(-0.008776562607696117 0 0)
(-0.02606401399537125 0 0)
(-0.04296209898917546 0 0)
(-0.05936020637199981 0 0)
(-0.07514966947354978 0 0)
(-0.08992437541390431 0 0)
(-0.1025180322355034 0 0)
(-0.1108782320252686 0 0)
(-0.1141480991952869 0 0)
(-0.1146634997684022 0 0)
(-0.114372969750862 0 0)
(-0.1138590142497066 0 0)
(-0.1127262652305229 0 0)
(-0.1106726631707555 0 0)
(-0.1073439938733084 0 0)
(-0.1023976516895696 0 0)
(-0.09555545567820188 0 0)
(-0.08664508853243566 0 0)
(-0.07563129248682307 0 0)
(-0.0626338790932677 0 0)
(-0.04792527334725562 0 0)
(-0.03190207454814575 0 0)
(-0.01502970978959865 0 0)
(0.002230941689017581 0 0)
(0.01949091680588774 0 0)
(0.03647501761733495 0 0)
(0.05302896941867623 0 0)
(0.06901957346144341 0 0)
(0.08405907328521553 0 0)
(0.09713621700922352 0 0)
(0.1063823684139636 0 0)
(0.1104302308431503 0 0)
(0.1111363360999792 0 0)
(0.1109068486747741 0 0)
(0.1103615599758653 0 0)
(0.1093091650498108 0 0)
(0.1074416198338203 0 0)
(0.1044233746577642 0 0)
(0.09992882275568345 0 0)
(0.09366554020229194 0 0)
(0.08541387854812522 0 0)
(0.07506728782114244 0 0)
(0.06266084655200577 0 0)
(0.0483807634177013 0 0)
(0.03255176190299915 0 0)
(0.01559884192154966 0 0)
(-0.002015649722813481 0 0)
(-0.01986089447162007 0 0)
(-0.03758778599703943 0 0)
(-0.05494865305360581 0 0)
(-0.07171889199906295 0 0)
(-0.08740304539865544 0 0)
(-0.1007810360128551 0 0)
(-0.1098261364766376 0 0)
(-0.1135482057318213 0 0)
(-0.1141752905328389 0 0)
(-0.1139354511113292 0 0)
(-0.1134486957374476 0 0)
(-0.1124615281412748 0 0)
(-0.1107043696292857 0 0)
(-0.1078650285366316 0 0)
(-0.1036309827194391 0 0)
(-0.09772265783459042 0 0)
(-0.08992999946103392 0 0)
(-0.08014216917879492 0 0)
(-0.06836948987062982 0 0)
(-0.05475441673118061 0 0)
(-0.03956615936203085 0 0)
(-0.02317329772588335 0 0)
(-0.005993476583097851 0 0)
(0.01156509047637113 0 0)
(0.02914923183225195 0 0)
(0.04648960690032651 0 0)
(0.0633509775389923 0 0)
(0.07926899289986017 0 0)
(0.09317581151639705 0 0)
(0.1032458063831731 0 0)
(0.1079608249644299 0 0)
(0.1088711955354125 0 0)
(0.1087318234896496 0 0)
(0.108209200799089 0 0)
(0.1072820621491757 0 0)
(0.1056615261339363 0 0)
(0.103059232297398 0 0)
(0.09918504455803555 0 0)
(0.09375990963960174 0 0)
(0.08654660626812057 0 0)
(0.07738747486659435 0 0)
(0.06623385522523752 0 0)
(0.05316248046350911 0 0)
(0.03837827654388076 0 0)
(0.02219902603323659 0 0)
(0.005016764445349108 0 0)
(-0.0127549825818708 0 0)
(-0.03072658816517602 0 0)
(-0.04856050226350443 0 0)
(-0.06592833983345248 0 0)
(-0.08224675270180798 0 0)
(-0.09623413232485573 0 0)
(-0.1058728974585751 0 0)
(-0.1100354706118201 0 0)
(-0.1107769812721543 0 0)
(-0.1106074491733135 0 0)
(-0.110140757133775 0 0)
(-0.1092612230110533 0 0)
(-0.1077282007392384 0 0)
(-0.1052780899622924 0 0)
(-0.1016375354166361 0 0)
(-0.0965431231349777 0 0)
(-0.08977399769681403 0 0)
(-0.08117972573500402 0 0)
(-0.07070092705073809 0 0)
(-0.05838416016021956 0 0)
(-0.04438829186043516 0 0)
(-0.02897543996407861 0 0)
(-0.01248131959316851 0 0)
(0.004727703147193541 0 0)
(0.02229142221563217 0 0)
(0.03988421508438476 0 0)
(0.05720089494522924 0 0)
(0.07373375157644009 0 0)
(0.08837653883151962 0 0)
(0.09932124372821872 0 0)
(0.1048917554387942 0 0)
(0.1061389375460967 0 0)
(0.1061139463270593 0 0)
(0.1056244543735803 0 0)
(0.1048277721966321 0 0)
(0.1034304801012415 0 0)
(0.1011993868646928 0 0)
(0.09788220113975071 0 0)
(0.0932227360810249 0 0)
(0.08698138629636903 0 0)
(0.07896816000123225 0 0)
(0.06907081525659678 0 0)
(0.05727291468565313 0 0)
(0.04366418224350863 0 0)
(0.02844058477796442 0 0)
(0.01188654341390671 0 0)
(-0.005658045327883371 0 0)
(-0.02382649431478567 0 0)
(-0.04224469688258885 0 0)
(-0.06051088144533791 0 0)
(-0.07796402904910545 0 0)
(-0.09321168389888647 0 0)
(-0.1040708870773083 0 0)
(-0.1091096109256386 0 0)
(-0.1101228354833791 0 0)
(-0.1100351525693521 0 0)
(-0.1095942980447538 0 0)
(-0.108806324896636 0 0)
(-0.107438469535975 0 0)
(-0.1052639877960044 0 0)
(-0.1020426632049988 0 0)
(-0.09753204579513265 0 0)
(-0.0915138006349798 0 0)
(-0.08381843727540041 0 0)
(-0.07434295984823822 0 0)
(-0.06306535960175616 0 0)
(-0.05005616418943837 0 0)
(-0.035480943734265 0 0)
(-0.01958669612051546 0 0)
(-0.002673983125122913 0 0)
(0.01492889228528913 0 0)
(0.03288329458214034 0 0)
(0.05084004088769317 0 0)
(0.06826681908495705 0 0)
(0.08402333037519835 0 0)
(0.09621833461758329 0 0)
(0.1029589170410989 0 0)
(0.10475256121069 0 0)
(0.1048313969254377 0 0)
(0.1044122592487133 0 0)
(0.103704607724279 0 0)
(0.1024596712894589 0 0)
(0.1004704528497007 0 0)
(0.09752029465929042 0 0)
(0.09338018681799605 0 0)
(0.08781928358201377 0 0)
(0.08063523024276179 0 0)
(0.07168137445927013 0 0)
(0.06088430250580117 0 0)
(0.04825620403087433 0 0)
(0.03390241931392926 0 0)
(0.01801690068590934 0 0)
(0.0008635109482146085 0 0)
(-0.01724086912412697 0 0)
(-0.03593272414551595 0 0)
(-0.05478931502217555 0 0)
(-0.07314373533586183 0 0)
(-0.0895966754205105 0 0)
(-0.1018511042970163 0 0)
(-0.1080844966313412 0 0)
(-0.1095727512839648 0 0)
(-0.1096016055368998 0 0)
(-0.1092034965385604 0 0)
(-0.1085137407418615 0 0)
(-0.1072912543019766 0 0)
(-0.1053464981737578 0 0)
(-0.1024664411212604 0 0)
(-0.09842811223121678 0 0)
(-0.09302043707207744 0 0)
(-0.08606742650459023 0 0)
(-0.07744321202464688 0 0)
(-0.067083528428595 0 0)
(-0.05499746723475526 0 0)
(-0.04127585189456241 0 0)
(-0.02608860687591393 0 0)
(-0.009668345164483094 0 0)
(0.007707037820375984 0 0)
(0.0257201315562185 0 0)
(0.04401518625692484 0 0)
(0.06208872793140268 0 0)
(0.07886744222932192 0 0)
(0.09241454551458925 0 0)
(0.1006111605412214 0 0)
(0.1032914561620491 0 0)
(0.1035300939543673 0 0)
(0.1032174245562473 0 0)
(0.102600407368848 0 0)
(0.1015095484360396 0 0)
(0.09974263822656648 0 0)
(0.09710852244822356 0 0)
(0.09340325333145882 0 0)
(0.088410263815713 0 0)
(0.08192740391405057 0 0)
(0.07379158076814717 0 0)
(0.06389366334059457 0 0)
(0.0521903770061528 0 0)
(0.03871556059142237 0 0)
(0.02358464598444332 0 0)
(0.006987159332080531 0 0)
(-0.01082139495407584 0 0)
(-0.02951407585081059 0 0)
(-0.04867807495837116 0 0)
(-0.06768588598885117 0 0)
(-0.08523550025456743 0 0)
(-0.09900183173365952 0 0)
(-0.1067425894214557 0 0)
(-0.1090171540531236 0 0)
(-0.1091989780219666 0 0)
(-0.1088772576047569 0 0)
(-0.1082896841283954 0 0)
(-0.1072093020752961 0 0)
(-0.1054684938706913 0 0)
(-0.1028806446662276 0 0)
(-0.09924223422283694 0 0)
(-0.09435226772655088 0 0)
(-0.08803528905073173 0 0)
(-0.08015426452684785 0 0)
(-0.07061860160772766 0 0)
(-0.05939446638422919 0 0)
(-0.04651557091787935 0 0)
(-0.03208709489586801 0 0)
(-0.01627778099240049 0 0)
(0.0006906321693335646 0 0)
(0.01854126150015435 0 0)
(0.03693538350174612 0 0)
(0.05541104452597911 0 0)
(0.0730273509728165 0 0)
(0.08790232183192148 0 0)
(0.09773280796406907 0 0)
(0.1016646296022256 0 0)
(0.1022035939006056 0 0)
(0.1020110644117578 0 0)
(0.1014963931641784 0 0)
(0.1005644393189983 0 0)
(0.09900762690121372 0 0)
(0.09665396542952563 0 0)
(0.09332285342507027 0 0)
(0.08881530554162247 0 0)
(0.08293568140895761 0 0)
(0.07551396459237737 0 0)
(0.06641924232595169 0 0)
(0.05557077760700198 0 0)
(0.04294997967211352 0 0)
(0.02860941147919177 0 0)
(0.01267286680872265 0 0)
(-0.004666741758568978 0 0)
(-0.02313474953818159 0 0)
(-0.04235293484628174 0 0)
(-0.06175694533304785 0 0)
(-0.08021314043408201 0 0)
(-0.09547236241029247 0 0)
(-0.1049352083652591 0 0)
(-0.1083548668011266 0 0)
(-0.1087869706713694 0 0)
(-0.1085669972876262 0 0)
(-0.1080863727627094 0 0)
(-0.107160141446343 0 0)
(-0.1056219934471295 0 0)
(-0.1033034499511575 0 0)
(-0.1000188045127779 0 0)
(-0.09557858689635282 0 0)
(-0.08981264457556982 0 0)
(-0.08258115406402097 0 0)
(-0.07377927401436334 0 0)
(-0.0633450755650946 0 0)
(-0.05127054898927037 0 0)
(-0.03760940176749707 0 0)
(-0.02247582354873841 0 0)
(-0.006038592816632312 0 0)
(0.01147359860437191 0 0)
(0.02975628033805282 0 0)
(0.04839407480122618 0 0)
(0.0666116242558465 0 0)
(0.08270019327024877 0 0)
(0.09421981692958932 0 0)
(0.09972778726778521 0 0)
(0.1008143053215796 0 0)
(0.1007520279876326 0 0)
(0.1003512598050554 0 0)
(0.09958269702048592 0 0)
(0.09823127020109995 0 0)
(0.09613885968879696 0 0)
(0.09314398289671211 0 0)
(0.08906318373412267 0 0)
(0.08370950264329419 0 0)
(0.0769137752772065 0 0)
(0.06853528127780824 0 0)
(0.05846983535000121 0 0)
(0.0466611883740195 0 0)
(0.03311280865865515 0 0)
(0.01789356886045941 0 0)
(0.001139100476123946 0 0)
(-0.01693281040383287 0 0)
(-0.03599088274785975 0 0)
(-0.05553554495717873 0 0)
(-0.0746239798914683 0 0)
(-0.0912369130404365 0 0)
(-0.1025505011866666 0 0)
(-0.1074644151988443 0 0)
(-0.1083671444444385 0 0)
(-0.1082587411155124 0 0)
(-0.1078867210184385 0 0)
(-0.1071180867543963 0 0)
(-0.105779065271514 0 0)
(-0.1037143955250745 0 0)
(-0.100754655828235 0 0)
(-0.09672014054781321 0 0)
(-0.09144498956957768 0 0)
(-0.08478935143495003 0 0)
(-0.07664193358765979 0 0)
(-0.06692472001316725 0 0)
(-0.05560204298609137 0 0)
(-0.04268951048656631 0 0)
(-0.02825720280301467 0 0)
(-0.01242671894508312 0 0)
(0.004622129793062281 0 0)
(0.02262722990344323 0 0)
(0.04121758384760493 0 0)
(0.05976972099570611 0 0)
(0.07685801472878258 0 0)
(0.09002433899469733 0 0)
(0.0973073726193532 0 0)
(0.09933642737453272 0 0)
(0.09943343049215765 0 0)
(0.09915083952989814 0 0)
(0.09855024006919676 0 0)
(0.09740286039061177 0 0)
(0.0955629051127185 0 0)
(0.09288069882233468 0 0)
(0.08918512507707678 0 0)
(0.08429934551988857 0 0)
(0.07806019172661259 0 0)
(0.07032464933421316 0 0)
(0.06097465842105414 0 0)
(0.04992822696847191 0 0)
(0.03715252590713138 0 0)
(0.02267254943810029 0 0)
(0.00657496057724203 0 0)
(-0.01097642861744349 0 0)
(-0.02970514781690823 0 0)
(-0.04918019505076321 0 0)
(-0.06863424591443679 0 0)
(-0.08636715660174613 0 0)
(-0.09952783856391269 0 0)
(-0.1061971403408573 0 0)
(-0.1078650359498847 0 0)
(-0.1079047695495595 0 0)
(-0.1076494249566902 0 0)
(-0.1070436759078166 0 0)
(-0.1059079022343048 0 0)
(-0.1040940547070656 0 0)
(-0.1014435951399355 0 0)
(-0.09778409240351124 0 0)
(-0.09295378339908253 0 0)
(-0.08681585007014113 0 0)
(-0.07925809480630465 0 0)
(-0.07019371980282235 0 0)
(-0.05956877131973149 0 0)
(-0.04737157871306144 0 0)
(-0.03363831822014709 0 0)
(-0.01845273078210221 0 0)
(-0.001952222128536665 0 0)
(0.01564820193764873 0 0)
(0.03402932478415412 0 0)
(0.05268099981984169 0 0)
(0.0704839050461937 0 0)
(0.0851505116064991 0 0)
(0.09428598179849942 0 0)
(0.09766529278956956 0 0)
(0.09803995088760845 0 0)
(0.0978787075375297 0 0)
(0.0974477518574757 0 0)
(0.09651008547636386 0 0)
(0.09491979398381653 0 0)
(0.09253748469458838 0 0)
(0.08920331400734773 0 0)
(0.08474745717084387 0 0)
(0.07901183334007768 0 0)
(0.07185561832663372 0 0)
(0.06315596000402557 0 0)
(0.05281580208619416 0 0)
(0.04077666244463445 0 0)
(0.02702967961849325 0 0)
(0.01162193653706418 0 0)
(-0.005331340775783929 0 0)
(-0.02361200274617688 0 0)
(-0.04285337197169731 0 0)
(-0.06242231927621016 0 0)
(-0.08096522476512565 0 0)
(-0.09582956004755627 0 0)
(-0.1044187759049021 0 0)
(-0.1072444273107465 0 0)
(-0.1075270263821722 0 0)
(-0.1073681060908721 0 0)
(-0.1069254595260477 0 0)
(-0.1059941566769531 0 0)
(-0.1044308654025137 0 0)
(-0.1020843961230763 0 0)
(-0.09878649273033877 0 0)
(-0.09437660162788318 0 0)
(-0.08871921287308615 0 0)
(-0.08170274033168524 0 0)
(-0.07323671450302735 0 0)
(-0.06325688811932738 0 0)
(-0.05173388054367 0 0)
(-0.03867948574559497 0 0)
(-0.02414828213651744 0 0)
(-0.00824096805160407 0 0)
(0.008874169225696485 0 0)
(0.0269258825860439 0 0)
(0.04548446204902897 0 0)
(0.0637025679893682 0 0)
(0.07964647834524913 0 0)
(0.09062704788584471 0 0)
(0.09561078485082289 0 0)
(0.09655227669449602 0 0)
(0.09651485080266053 0 0)
(0.09623689248069489 0 0)
(0.09550993052292457 0 0)
(0.09417237310938356 0 0)
(0.09208828546856093 0 0)
(0.08910482685861917 0 0)
(0.08505506910227287 0 0)
(0.07978485759922525 0 0)
(0.07315945245741158 0 0)
(0.06505758099567989 0 0)
(0.05537377537517852 0 0)
(0.04403141102284648 0 0)
(0.03099648556671792 0 0)
(0.01628565921478884 0 0)
(-2.557850633180831e-05 0 0)
(-0.01777223618914378 0 0)
(-0.03664818796576386 0 0)
(-0.05613210595779466 0 0)
(-0.0751793699599384 0 0)
(-0.09151047903400825 0 0)
(-0.102098480109795 0 0)
(-0.106387757124735 0 0)
(-0.1071244383572819 0 0)
(-0.1070509772583485 0 0)
(-0.1067600925373755 0 0)
(-0.1060316959505426 0 0)
(-0.1047130893831432 0 0)
(-0.1026615391275525 0 0)
(-0.09971228433361876 0 0)
(-0.09570337340464675 0 0)
(-0.09049825091808505 0 0)
(-0.0839861509389728 0 0)
(-0.0760758157238179 0 0)
(-0.06669727206051292 0 0)
(-0.05580934056655221 0 0)
(-0.04340652000487182 0 0)
(-0.02952170293038992 0 0)
(-0.01422696633756746 0 0)
(0.002348672504285934 0 0)
(0.01997961405216645 0 0)
(0.03830680433401916 0 0)
(0.05668767762404136 0 0)
(0.073602787744525 0 0)
(0.08632090332653278 0 0)
(0.09306889583303657 0 0)
(0.09493759711308535 0 0)
(0.09507442402386407 0 0)
(0.09491831344603427 0 0)
(0.09440322173836511 0 0)
(0.09331626088835876 0 0)
(0.09152579342192284 0 0)
(0.08888286308246457 0 0)
(0.08522451682311064 0 0)
(0.08039755929102979 0 0)
(0.0742702637400712 0 0)
(0.06672452675241866 0 0)
(0.05765303578436724 0 0)
(0.04696943490203061 0 0)
(0.03462213543443769 0 0)
(0.02060410023767672 0 0)
(0.004959318925300308 0 0)
(-0.01219428267166432 0 0)
(-0.03061146345702348 0 0)
(-0.0498605209087117 0 0)
(-0.0691274909246839 0 0)
(-0.08657710991645311 0 0)
(-0.09913254851330185 0 0)
(-0.105172839941334 0 0)
(-0.1066670172159222 0 0)
(-0.1066880773107495 0 0)
(-0.1065327740685955 0 0)
(-0.1059914550168631 0 0)
(-0.1049076330784707 0 0)
(-0.1031423263901723 0 0)
(-0.1005334882718619 0 0)
(-0.09691541705477032 0 0)
(-0.09214695661651758 0 0)
(-0.08611608591399841 0 0)
(-0.07873115907347487 0 0)
(-0.06991884579476842 0 0)
(-0.05963039293086767 0 0)
(-0.04784864221811812 0 0)
(-0.03459120895515729 0 0)
(-0.01991076994436309 0 0)
(-0.003905842172184033 0 0)
(0.01324463758239466 0 0)
(0.03124267178406314 0 0)
(0.04957538394353261 0 0)
(0.0670984370063952 0 0)
(0.08139065005005945 0 0)
(0.09000736270022629 0 0)
(0.09313548541432144 0 0)
(0.09352315557708968 0 0)
(0.09351651664196177 0 0)
(0.09318872314890655 0 0)
(0.09234716605369409 0 0)
(0.09084531671200356 0 0)
(0.08853812870838111 0 0)
(0.08526324326071313 0 0)
(0.08086367655440346 0 0)
(0.07520783997922836 0 0)
(0.06818322709648911 0 0)
(0.05968591692766779 0 0)
(0.04962439831543071 0 0)
(0.03793391993743075 0 0)
(0.02458942282188112 0 0)
(0.009612304373579917 0 0)
(-0.006915443346204971 0 0)
(-0.02480552584924551 0 0)
(-0.04370267763386355 0 0)
(-0.0629602327497835 0 0)
(-0.08116980132453781 0 0)
(-0.09554401698937319 0 0)
(-0.1035142532119411 0 0)
(-0.1060677615337645 0 0)
(-0.1063001287436417 0 0)
(-0.1062577722269003 0 0)
(-0.1058868112304223 0 0)
(-0.1050330189450814 0 0)
(-0.1035444179279189 0 0)
(-0.1012659120708613 0 0)
(-0.09802840808359232 0 0)
(-0.09368447396835386 0 0)
(-0.08811925772546023 0 0)
(-0.08123987809568371 0 0)
(-0.07296963814061927 0 0)
(-0.0632533657150918 0 0)
(-0.05206479052982602 0 0)
(-0.03941061966214337 0 0)
(-0.02533098957473865 0 0)
(-0.009902418672960269 0 0)
(0.006735912494517033 0 0)
(0.02433290417004656 0 0)
(0.0424652945552285 0 0)
(0.06029455288697021 0 0)
(0.07587697290394976 0 0)
(0.08635187603920388 0 0)
(0.09099735710211863 0 0)
(0.09190427923648276 0 0)
(0.09203246821891575 0 0)
(0.09184912648694116 0 0)
(0.0912498315909912 0 0)
(0.09003158949501304 0 0)
(0.08805276837545493 0 0)
(0.08515269275468891 0 0)
(0.08117067053651607 0 0)
(0.07597277829706892 0 0)
(0.06944887169667405 0 0)
(0.06149783969992256 0 0)
(0.05202667916851701 0 0)
(0.04096282810513819 0 0)
(0.02826788407232422 0 0)
(0.0139465425234885 0 0)
(-0.001945795963071383 0 0)
(-0.01926989891729109 0 0)
(-0.03773253382312583 0 0)
(-0.05680469334882574 0 0)
(-0.0754308705885092 0 0)
(-0.09130164710596003 0 0)
(-0.101325151820879 0 0)
(-0.1052632102925233 0 0)
(-0.1059434640672439 0 0)
(-0.1059733196175704 0 0)
(-0.105746428002695 0 0)
(-0.1051022418603463 0 0)
(-0.1038698677411527 0 0)
(-0.101902190449455 0 0)
(-0.09902900111730958 0 0)
(-0.09509608211457984 0 0)
(-0.08998339013102485 0 0)
(-0.08359591626278573 0 0)
(-0.07585353058310411 0 0)
(-0.06669400216030139 0 0)
(-0.0560814862823265 0 0)
(-0.04401234667277815 0 0)
(-0.03051643021704929 0 0)
(-0.01565692898825568 0 0)
(0.0004526963787784509 0 0)
(0.01760395064653424 0 0)
(0.03544765844768195 0 0)
(0.05334219409365847 0 0)
(0.06980473821802738 0 0)
(0.08208012393033508 0 0)
(0.08841963232861112 0 0)
(0.09024904906041026 0 0)
(0.09043944474602705 0 0)
(0.09042351710858131 0 0)
(0.0900342658793548 0 0)
(0.08908719461577648 0 0)
(0.08742915865875225 0 0)
(0.08489592250569659 0 0)
(0.08132305670051239 0 0)
(0.07657061165613806 0 0)
(0.07052812008896527 0 0)
(0.06310009466399337 0 0)
(0.05419703768595274 0 0)
(0.04374125211920707 0 0)
(0.03168133991968419 0 0)
(0.01800549563972039 0 0)
(0.002749118952264823 0 0)
(-0.01398300064251428 0 0)
(-0.03195553926559189 0 0)
(-0.05073586807118379 0 0)
(-0.06951150957346725 0 0)
(-0.08647046296571073 0 0)
(-0.09852138824369017 0 0)
(-0.1041307671314846 0 0)
(-0.1055626205828159 0 0)
(-0.1056051310673445 0 0)
(-0.1055452162057374 0 0)
(-0.1050941352685023 0 0)
(-0.1041116885176312 0 0)
(-0.1024465563610885 0 0)
(-0.09992356011275531 0 0)
(-0.09638075882710341 0 0)
(-0.09169542196308422 0 0)
(-0.08577502849580992 0 0)
(-0.07854064858491579 0 0)
(-0.06992529949074655 0 0)
(-0.05988263243760023 0 0)
(-0.04839513263465046 0 0)
(-0.03547903210965548 0 0)
(-0.02118621636298492 0 0)
(-0.005611262398116709 0 0)
(0.01107572540923685 0 0)
(0.02857451789057414 0 0)
(0.04636161067669511 0 0)
(0.063343789004705 0 0)
(0.07722104861823254 0 0)
(0.08541203800913826 0 0)
(0.08839877036422915 0 0)
(0.08878954876031236 0 0)
(0.08891999891351732 0 0)
(0.08870360050939145 0 0)
(0.08802531819485174 0 0)
(0.08668509234734274 0 0)
(0.08451794191064967 0 0)
(0.08134727038557558 0 0)
(0.07702444090643179 0 0)
(0.0714410835114328 0 0)
(0.06450997256881551 0 0)
(0.05614833555653635 0 0)
(0.04627866907089683 0 0)
(0.0348403392984879 0 0)
(0.02180410838371611 0 0)
(0.007185221067343617 0 0)
(-0.008941642668265824 0 0)
(-0.0263960600715761 0 0)
(-0.0448129276649605 0 0)
(-0.06353034561843869 0 0)
(-0.08118145860577639 0 0)
(-0.09507813481039297 0 0)
(-0.1026298600657072 0 0)
(-0.1050111696747716 0 0)
(-0.1052643662047802 0 0)
(-0.1052898745051984 0 0)
(-0.105002640629026 0 0)
(-0.1042622928842724 0 0)
(-0.1028950774575616 0 0)
(-0.1007229228347068 0 0)
(-0.09756743799871714 0 0)
(-0.09329338865247144 0 0)
(-0.08781022868041748 0 0)
(-0.08104958463801214 0 0)
(-0.07295118197755582 0 0)
(-0.06346511748333727 0 0)
(-0.0525608635870095 0 0)
(-0.04023620615227991 0 0)
(-0.0265236313910151 0 0)
(-0.01149575677418411 0 0)
(0.004708254187536017 0 0)
(0.02182930769876392 0 0)
(0.03943143721358076 0 0)
(0.05668457249696546 0 0)
(0.07176378192169663 0 0)
(0.08187641774566712 0 0)
(0.08622529193529754 0 0)
(0.08719874041654199 0 0)
(0.08730093344960746 0 0)
(0.08723615956530019 0 0)
(0.08679239105440133 0 0)
(0.08576912267874751 0 0)
(0.08398272262718277 0 0)
(0.08123456214812437 0 0)
(0.0773523098048301 0 0)
(0.07221480207029632 0 0)
(0.06574202539477879 0 0)
(0.05787196042011746 0 0)
(0.04854533383447985 0 0)
(0.03770472523883434 0 0)
(0.02530666873356299 0 0)
(0.01134072733950793 0 0)
(-0.004152550161288309 0 0)
(-0.02104447411082694 0 0)
(-0.03904018609421493 0 0)
(-0.05759616524749248 0 0)
(-0.07566075472957448 0 0)
(-0.09101512262034794 0 0)
(-0.1006572280286994 0 0)
(-0.1043232745727449 0 0)
(-0.1050335447925067 0 0)
(-0.104981624499464 0 0)
(-0.1048402696990231 0 0)
(-0.104306516623341 0 0)
(-0.1032341523339051 0 0)
(-0.1014298636166286 0 0)
(-0.09868722013043628 0 0)
(-0.09484029759403413 0 0)
(-0.08978255297803427 0 0)
(-0.08345218811358343 0 0)
(-0.07581065008698901 0 0)
(-0.06682814948895451 0 0)
(-0.05647907980511362 0 0)
(-0.04474796596114668 0 0)
(-0.03164242851407157 0 0)
(-0.01720443393624236 0 0)
(-0.001530566615122411 0 0)
(0.01517307673515164 0 0)
(0.03253418157123148 0 0)
(0.04989123484909853 0 0)
(0.0658188427233438 0 0)
(0.07778297197105068 0 0)
(0.08384762713094808 0 0)
(0.08553967781882722 0 0)
(0.08564756568524147 0 0)
(0.08565143910857297 0 0)
(0.08536255233815356 0 0)
(0.0846264541245299 0 0)
(0.08322910409186196 0 0)
(0.08094153233984445 0 0)
(0.07754826961085129 0 0)
(0.07289219151338232 0 0)
(0.06687831559319907 0 0)
(0.05945440489741199 0 0)
(0.05059202061817064 0 0)
(0.04027196679629542 0 0)
(0.02847214017172223 0 0)
(0.01516909089863914 0 0)
(0.0003608728524885389 0 0)
(-0.01589031921653719 0 0)
(-0.03337385231954862 0 0)
(-0.05164913540538076 0 0)
(-0.06990015365819228 0 0)
(-0.08636032612569808 0 0)
(-0.09809577871618302 0 0)
(-0.1035086977579766 0 0)
(-0.1047745602200701 0 0)
(-0.1047811577965424 0 0)
(-0.1046216804850932 0 0)
(-0.1041939420058598 0 0)
(-0.1033580612871448 0 0)
(-0.1019141397658828 0 0)
(-0.09963026335841489 0 0)
(-0.09628512178193631 0 0)
(-0.0917160313692534 0 0)
(-0.08583017297076499 0 0)
(-0.07859493123327392 0 0)
(-0.07001951462829643 0 0)
(-0.06012783531536068 0 0)
(-0.04893262043219109 0 0)
(-0.03643164497425083 0 0)
(-0.02262954123045548 0 0)
(-0.007567609041498465 0 0)
(0.008620743333857339 0 0)
(0.02563610867370091 0 0)
(0.04294921698317331 0 0)
(0.05948268809376768 0 0)
(0.07300835709345344 0 0)
(0.08108196373389306 0 0)
(0.08388161931391512 0 0)
(0.08428703793404528 0 0)
(0.08410807440983095 0 0)
(0.08383854490718302 0 0)
(0.08322250181467603 0 0)
(0.08212190240946918 0 0)
(0.08031333482387346 0 0)
(0.07752332505904841 0 0)
(0.07349530910680743 0 0)
(0.06804437620906728 0 0)
(0.0610795735665168 0 0)
(0.05259612176801244 0 0)
(0.04264494333036747 0 0)
(0.03129031528998841 0 0)
(0.01856716142364889 0 0)
(0.004466652991099859 0 0)
(-0.01103344714132626 0 0)
(-0.02786264151816278 0 0)
(-0.04570754037304206 0 0)
(-0.06392739008849231 0 0)
(-0.08115749293403315 0 0)
(-0.09472806082035234 0 0)
(-0.1022487735753689 0 0)
(-0.1045625793930991 0 0)
(-0.1048089969072148 0 0)
(-0.104588871763826 0 0)
(-0.1041638578536415 0 0)
(-0.1033475310947174 0 0)
(-0.1020477650480264 0 0)
(-0.1001135064864148 0 0)
(-0.09733224481368151 0 0)
(-0.09346608378768211 0 0)
(-0.08828870870808189 0 0)
(-0.0816224513369225 0 0)
(-0.07338670200852464 0 0)
(-0.06365045938293637 0 0)
(-0.05263634768993044 0 0)
(-0.04060376835693631 0 0)
(-0.02761320808768362 0 0)
(-0.01348815355969249 0 0)
(0.002196475172715826 0 0)
(0.01835595813363674 0 0)
(0.03757064194590051 0 0)
)
;

boundaryField
{
    inlet
    {
        type            zeroGradient;
    }
    outlet
    {
        type            velocityOutletNSCBCx;
        pInf            101325;
        gamma           1.4;
        etaAc           1;
        fieldInf        (-1 0 0);
        lInf            2.25;
        value           uniform (0.04512587969194789 0 0);
    }
    frontAndBack
    {
        type            empty;
    }
}


// ************************************************************************* //
