/*--------------------------------*- C++ -*----------------------------------*\
| =========                 |                                                 |
| \\      /  F ield         | OpenFOAM: The Open Source CFD Toolbox           |
|  \\    /   O peration     | Version:  v2012                                 |
|   \\  /    A nd           | Website:  www.openfoam.com                      |
|    \\/     M anipulation  |                                                 |
\*---------------------------------------------------------------------------*/
FoamFile
{
    version     2.0;
    format      ascii;
    class       volVectorField;
    location    "0.016";
    object      UMean;
}
// * * * * * * * * * * * * * * * * * * * * * * * * * * * * * * * * * * * * * //

dimensions      [0 1 -1 0 0 0 0];


internalField   nonuniform List<vector> 
1000
(
(-8.230545330210761e-05 0 0)
(-5.890513463578097e-05 0 0)
(-4.592906513604582e-05 0 0)
(-1.902080913797715e-05 0 0)
(1.216154289602633e-05 0 0)
(4.364751187891902e-05 0 0)
(8.548924643029268e-05 0 0)
(0.0001293857588704155 0 0)
(0.0001816653008852492 0 0)
(0.0002363232901134873 0 0)
(0.00029341951709837 0 0)
(0.0003499081858867098 0 0)
(0.0004060997918247616 0 0)
(0.0004615011763093366 0 0)
(0.000515106659216776 0 0)
(0.0005659922276188599 0 0)
(0.0006128157923068913 0 0)
(0.0006548331290987618 0 0)
(0.0006910476988573181 0 0)
(0.0007211185186968884 0 0)
(0.00074441768370855 0 0)
(0.0007606999128795609 0 0)
(0.0007694597650085976 0 0)
(0.0007706112791887387 0 0)
(0.0007642793946298138 0 0)
(0.0007503615684140322 0 0)
(0.0007293537808430386 0 0)
(0.0007013730899393205 0 0)
(0.0006668944747366012 0 0)
(0.000626323984888923 0 0)
(0.0005801694325591617 0 0)
(0.0005290931309598146 0 0)
(0.0004748589379367848 0 0)
(0.0004191752592388714 0 0)
(0.0003635491416850712 0 0)
(0.0003080294671824514 0 0)
(0.0002531282073630615 0 0)
(0.0001994418725743175 0 0)
(0.0001479078862984352 0 0)
(9.963968038917072e-05 0 0)
(5.58826843733852e-05 0 0)
(1.745129061584108e-05 0 0)
(-1.462865195654549e-05 0 0)
(-3.990799290016044e-05 0 0)
(-5.781305291178805e-05 0 0)
(-6.848060524593202e-05 0 0)
(-7.135772778976506e-05 0 0)
(-6.658583760886896e-05 0 0)
(-5.430396750195163e-05 0 0)
(-3.459980468660863e-05 0 0)
(-7.804862356853869e-06 0 0)
(2.570236291802932e-05 0 0)
(6.568223678435569e-05 0 0)
(0.0001116185314011604 0 0)
(0.0001623397629148566 0 0)
(0.0002160228233461348 0 0)
(0.0002706740129936368 0 0)
(0.0003255971889979871 0 0)
(0.0003802288586554813 0 0)
(0.000434247842304263 0 0)
(0.0004871387652261811 0 0)
(0.0005379391183333638 0 0)
(0.0005858236244810355 0 0)
(0.0006297638963391412 0 0)
(0.000668554871485182 0 0)
(0.0007013940132972447 0 0)
(0.0007275319372218296 0 0)
(0.0007465047819938555 0 0)
(0.0007579076927942087 0 0)
(0.0007616187529863238 0 0)
(0.0007578212054030463 0 0)
(0.0007464203331594704 0 0)
(0.0007278242508858357 0 0)
(0.0007020354909033663 0 0)
(0.0006693982560879676 0 0)
(0.0006300479373959744 0 0)
(0.0005847015823999297 0 0)
(0.0005341620412546546 0 0)
(0.0004807037549017311 0 0)
(0.0004258806318297441 0 0)
(0.0003712823612499155 0 0)
(0.0003165842529082223 0 0)
(0.0002624127916452928 0 0)
(0.0002091772320739172 0 0)
(0.000157562221637283 0 0)
(0.0001083976726339747 0 0)
(6.295297958050286e-05 0 0)
(2.200087443178921e-05 0 0)
(-1.3194700978262e-05 0 0)
(-4.197206100787662e-05 0 0)
(-6.343413417905933e-05 0 0)
(-7.74016182119397e-05 0 0)
(-8.36216844084937e-05 0 0)
(-8.187970009120702e-05 0 0)
(-7.240990906642567e-05 0 0)
(-5.539040161217732e-05 0 0)
(-3.095930527980572e-05 0 0)
(6.078827828368323e-07 0 0)
(3.894935638055379e-05 0 0)
(8.373654685015575e-05 0 0)
(0.0001334594374332962 0 0)
(0.0001860840298284828 0 0)
(0.0002395315270636908 0 0)
(0.0002934995176839346 0 0)
(0.000346990609439731 0 0)
(0.0004001214719447798 0 0)
(0.0004523242320610927 0 0)
(0.000502826615903581 0 0)
(0.0005509259841062034 0 0)
(0.0005956967697963402 0 0)
(0.0006361446562512574 0 0)
(0.0006712262943151737 0 0)
(0.0007001744533687732 0 0)
(0.0007221036552489212 0 0)
(0.0007368817000690865 0 0)
(0.0007434653172049504 0 0)
(0.0007424675234302065 0 0)
(0.0007336897496106293 0 0)
(0.0007173466163134578 0 0)
(0.0006936032873573176 0 0)
(0.0006627802030017985 0 0)
(0.0006248393422617703 0 0)
(0.0005806920122154923 0 0)
(0.0005311569499661404 0 0)
(0.0004785146920356398 0 0)
(0.0004244485549011604 0 0)
(0.00037054662034458 0 0)
(0.0003164010136685263 0 0)
(0.0002628702923051068 0 0)
(0.0002098799220224983 0 0)
(0.0001583576359091915 0 0)
(0.000108730919496736 0 0)
(6.220734739086848e-05 0 0)
(1.96331608134475e-05 0 0)
(-1.795583223237272e-05 0 0)
(-4.962745215152183e-05 0 0)
(-7.450769643121586e-05 0 0)
(-9.18919883853673e-05 0 0)
(-0.0001018092273677566 0 0)
(-0.0001035091913720928 0 0)
(-9.708753010196814e-05 0 0)
(-8.288064347300941e-05 0 0)
(-6.07993617970481e-05 0 0)
(-3.127133294813596e-05 0 0)
(5.4399485720526e-06 0 0)
(4.874617788655605e-05 0 0)
(9.735686709043405e-05 0 0)
(0.0001489044025775873 0 0)
(0.0002015377948744454 0 0)
(0.0002543273555843175 0 0)
(0.0003071349053495069 0 0)
(0.0003596380646844098 0 0)
(0.0004111888248134907 0 0)
(0.0004614969416185026 0 0)
(0.0005096784033880175 0 0)
(0.0005549043867329955 0 0)
(0.0005965392078818755 0 0)
(0.0006332689601896173 0 0)
(0.0006645301180810959 0 0)
(0.00068917888506075 0 0)
(0.0007070902254016605 0 0)
(0.0007168171697227878 0 0)
(0.0007189722381797842 0 0)
(0.0007131800558728075 0 0)
(0.0006994779352363086 0 0)
(0.0006780339969963483 0 0)
(0.0006491264355395775 0 0)
(0.0006129237349129762 0 0)
(0.0005700675774385678 0 0)
(0.0005217573041544199 0 0)
(0.0004699268205735624 0 0)
(0.0004168267473378189 0 0)
(0.0003630656591492879 0 0)
(0.0003099217957895817 0 0)
(0.0002568630366739705 0 0)
(0.0002042034512473012 0 0)
(0.0001528579725100085 0 0)
(0.0001030494600412635 0 0)
(5.58206797724285e-05 0 0)
(1.207871726344239e-05 0 0)
(-2.726056335449123e-05 0 0)
(-6.122611816459402e-05 0 0)
(-8.893154368977652e-05 0 0)
(-0.0001094524041779888 0 0)
(-0.0001228229262649819 0 0)
(-0.0001279836516950433 0 0)
(-0.0001248111897967275 0 0)
(-0.0001135596555777316 0 0)
(-9.410436797865382e-05 0 0)
(-6.680857578530025e-05 0 0)
(-3.176181860612262e-05 0 0)
(1.001595738753981e-05 0 0)
(5.759941777620497e-05 0 0)
(0.0001082839666861076 0 0)
(0.0001603980005354883 0 0)
(0.0002121735246465282 0 0)
(0.0002648787137458511 0 0)
(0.000316711077052618 0 0)
(0.000367984495904085 0 0)
(0.0004181414559689637 0 0)
(0.0004665708768355604 0 0)
(0.0005123367339167789 0 0)
(0.0005549354157748397 0 0)
(0.0005932490519200891 0 0)
(0.000626560027955027 0 0)
(0.0006538008411233538 0 0)
(0.0006745895846152696 0 0)
(0.0006878517797450357 0 0)
(0.0006932380645309264 0 0)
(0.0006907655543965162 0 0)
(0.000680244422469334 0 0)
(0.0006615970941641605 0 0)
(0.0006351738743412055 0 0)
(0.0006011407940938968 0 0)
(0.0005600063009350161 0 0)
(0.0005131416986534177 0 0)
(0.0004624116422445392 0 0)
(0.0004102573960741876 0 0)
(0.0003571850458247909 0 0)
(0.0003050350390895388 0 0)
(0.0002524569593310514 0 0)
(0.0002004931959529908 0 0)
(0.0001494050142512477 0 0)
(9.980337362907418e-05 0 0)
(5.231775634440016e-05 0 0)
(7.754696403147574e-06 0 0)
(-3.273720335845957e-05 0 0)
(-6.851070969711041e-05 0 0)
(-9.843839733238751e-05 0 0)
(-0.0001219523795648937 0 0)
(-0.0001379537378922633 0 0)
(-0.000146884683876415 0 0)
(-0.0001472816567453177 0 0)
(-0.0001395171766283242 0 0)
(-0.0001234322690143395 0 0)
(-9.927944320622372e-05 0 0)
(-6.713988608059094e-05 0 0)
(-2.796659555185746e-05 0 0)
(1.716587144975103e-05 0 0)
(6.576246654295937e-05 0 0)
(0.0001158636067062903 0 0)
(0.000165698006011606 0 0)
(0.00021647371814924 0 0)
(0.0002663242988937299 0 0)
(0.0003160902616928502 0 0)
(0.0003645412575404196 0 0)
(0.0004118145528084002 0 0)
(0.0004566412954945343 0 0)
(0.0004986232029799418 0 0)
(0.0005369561427354003 0 0)
(0.0005707234984863134 0 0)
(0.0005991299608566054 0 0)
(0.0006213323821223456 0 0)
(0.0006370438277517623 0 0)
(0.0006446677809180731 0 0)
(0.0006448052207426611 0 0)
(0.000637061631203604 0 0)
(0.0006211449924724357 0 0)
(0.0005972566976735317 0 0)
(0.0005654900335391527 0 0)
(0.0005265425293864347 0 0)
(0.0004813244717445276 0 0)
(0.0004320574700902994 0 0)
(0.0003808982798303034 0 0)
(0.0003291571325268946 0 0)
(0.0002773596024651826 0 0)
(0.0002259306323794204 0 0)
(0.0001748951174466522 0 0)
(0.0001243003069125553 0 0)
(7.511211344412417e-05 0 0)
(2.768900349157063e-05 0 0)
(-1.735247620093774e-05 0 0)
(-5.877786963469774e-05 0 0)
(-9.603295347914463e-05 0 0)
(-0.0001279391474709967 0 0)
(-0.0001540677629895861 0 0)
(-0.0001728964932987003 0 0)
(-0.0001852986000942333 0 0)
(-0.0001892623174929264 0 0)
(-0.0001849936560792937 0 0)
(-0.0001722517937626123 0 0)
(-0.0001511959617584351 0 0)
(-0.0001217260415192893 0 0)
(-8.458044481274985e-05 0 0)
(-4.112868611441474e-05 0 0)
(6.442016008328195e-06 0 0)
(5.556737526547336e-05 0 0)
(0.0001051086515655568 0 0)
(0.0001541872071619107 0 0)
(0.0002040699434424471 0 0)
(0.0002531857695114918 0 0)
(0.0003012304316210942 0 0)
(0.0003482284012477487 0 0)
(0.0003931965093230681 0 0)
(0.0004355476814340891 0 0)
(0.0004745099760840489 0 0)
(0.0005094955873272345 0 0)
(0.0005395179013765196 0 0)
(0.0005637560305449392 0 0)
(0.0005819478774645768 0 0)
(0.0005923128367066337 0 0)
(0.0005953065978991557 0 0)
(0.0005905905169684288 0 0)
(0.0005775682639488578 0 0)
(0.000556338925733225 0 0)
(0.0005269049637439582 0 0)
(0.000489905997608253 0 0)
(0.000446080932998695 0 0)
(0.000397739433211227 0 0)
(0.0003469836305024507 0 0)
(0.0002959802401422015 0 0)
(0.000243782142535573 0 0)
(0.0001933072601782897 0 0)
(0.0001422212379880957 0 0)
(9.182911152495331e-05 0 0)
(4.240012296577846e-05 0 0)
(-5.255382049373555e-06 0 0)
(-5.09439090372052e-05 0 0)
(-9.35681025718033e-05 0 0)
(-0.0001322454731516918 0 0)
(-0.0001661166109668558 0 0)
(-0.0001944992430664705 0 0)
(-0.000216204959306495 0 0)
(-0.0002312462659740499 0 0)
(-0.0002387738066576402 0 0)
(-0.000237835032554913 0 0)
(-0.0002284446500256422 0 0)
(-0.00021044636074064 0 0)
(-0.0001838323862802212 0 0)
(-0.0001490769252534879 0 0)
(-0.0001073868423184999 0 0)
(-6.110181729340576e-05 0 0)
(-1.279706076985619e-05 0 0)
(3.61715515996068e-05 0 0)
(8.43212262982516e-05 0 0)
(0.0001339289932493043 0 0)
(0.0001822259296455223 0 0)
(0.000230057688651432 0 0)
(0.0002766544169533302 0 0)
(0.0003217185041650742 0 0)
(0.000364381734598751 0 0)
(0.0004038275466555736 0 0)
(0.0004397882407569895 0 0)
(0.000471098036136265 0 0)
(0.0004972442547316145 0 0)
(0.0005171598295413962 0 0)
(0.0005308178568528137 0 0)
(0.0005360687732139105 0 0)
(0.0005341301623406208 0 0)
(0.0005239392817679027 0 0)
(0.0005055733346053371 0 0)
(0.0004786424513609046 0 0)
(0.0004438069441961893 0 0)
(0.0004017948957531113 0 0)
(0.0003545124660765699 0 0)
(0.0003043689084203312 0 0)
(0.0002536674703884305 0 0)
(0.0002020221962636503 0 0)
(0.0001514812802913132 0 0)
(0.0001005696400963151 0 0)
(5.049012690281625e-05 0 0)
(8.770757094891254e-07 0 0)
(-4.707447662405268e-05 0 0)
(-9.322889631517522e-05 0 0)
(-0.000136811137582517 0 0)
(-0.0001768877138542601 0 0)
(-0.0002124556827516145 0 0)
(-0.0002428394367443846 0 0)
(-0.000267319731955495 0 0)
(-0.0002845874907512362 0 0)
(-0.0002954989539003153 0 0)
(-0.0002979430893372902 0 0)
(-0.0002918330760392322 0 0)
(-0.0002770326864307605 0 0)
(-0.0002534922910008088 0 0)
(-0.000221448909506897 0 0)
(-0.0001818376928864981 0 0)
(-0.0001370465473434323 0 0)
(-8.958506818176747e-05 0 0)
(-4.149026032629738e-05 0 0)
(6.578481088507279e-06 0 0)
(5.444817565348579e-05 0 0)
(0.0001027615424373041 0 0)
(0.0001502398232766618 0 0)
(0.0001965232113599053 0 0)
(0.000241442788246285 0 0)
(0.0002844114038377438 0 0)
(0.0003243465401151979 0 0)
(0.0003609045551513232 0 0)
(0.000393416720733828 0 0)
(0.0004211066366654961 0 0)
(0.0004428334327631267 0 0)
(0.0004589127620859853 0 0)
(0.0004665866289935899 0 0)
(0.0004672599775932056 0 0)
(0.0004599805288131545 0 0)
(0.000444389846707724 0 0)
(0.0004202452086595543 0 0)
(0.0003877903275747507 0 0)
(0.0003477676146055015 0 0)
(0.0003018538584363107 0 0)
(0.0002524472068801067 0 0)
(0.0002018793951321928 0 0)
(0.0001512297328507107 0 0)
(9.964085961590342e-05 0 0)
(4.981686011116134e-05 0 0)
(-2.90421186634405e-07 0 0)
(-4.987514579956865e-05 0 0)
(-9.819563479382103e-05 0 0)
(-0.0001446873432791773 0 0)
(-0.0001889879297000731 0 0)
(-0.0002303647411234018 0 0)
(-0.0002674737480901578 0 0)
(-0.0002997356232889754 0 0)
(-0.0003264754276778082 0 0)
(-0.0003463258240888478 0 0)
(-0.0003600029484320655 0 0)
(-0.0003657899200037344 0 0)
(-0.0003628622038734999 0 0)
(-0.0003514448958056935 0 0)
(-0.000330988938069175 0 0)
(-0.0003019672883890212 0 0)
(-0.0002648033343565369 0 0)
(-0.0002216902721031453 0 0)
(-0.0001752612429195425 0 0)
(-0.0001280109195831719 0 0)
(-8.021297384247889e-05 0 0)
(-3.378487587692679e-05 0 0)
(1.466390708846929e-05 0 0)
(6.138620335009684e-05 0 0)
(0.0001074702201697427 0 0)
(0.0001521160472772329 0 0)
(0.0001951903471679405 0 0)
(0.0002355925087431487 0 0)
(0.0002727014403185548 0 0)
(0.000306068027754163 0 0)
(0.0003351154456542276 0 0)
(0.0003586520771743642 0 0)
(0.0003763363648846604 0 0)
(0.0003872157921042409 0 0)
(0.0003899778775506762 0 0)
(0.0003853820102029187 0 0)
(0.0003725170800910878 0 0)
(0.0003512461483319117 0 0)
(0.0003213479526738851 0 0)
(0.0002835131764600079 0 0)
(0.0002392610186922722 0 0)
(0.0001907449254033743 0 0)
(0.000140515481508319 0 0)
(9.022487481639989e-05 0 0)
(3.882745507252263e-05 0 0)
(-1.077578953459883e-05 0 0)
(-6.099842840462694e-05 0 0)
(-0.0001103262379642554 0 0)
(-0.0001589340719566771 0 0)
(-0.000205892319191243 0 0)
(-0.0002506955791850019 0 0)
(-0.0002930796771457925 0 0)
(-0.0003317775143755411 0 0)
(-0.0003657335411254403 0 0)
(-0.0003944258810611181 0 0)
(-0.0004171919098176497 0 0)
(-0.0004325584426332881 0 0)
(-0.0004418626689392869 0 0)
(-0.0004422825648457292 0 0)
(-0.0004341532748049871 0 0)
(-0.0004169995822107804 0 0)
(-0.0003910556440863675 0 0)
(-0.0003566917689601089 0 0)
(-0.0003155773951597718 0 0)
(-0.0002703997219951242 0 0)
(-0.0002238615356306958 0 0)
(-0.0001769093889403797 0 0)
(-0.0001305026474025338 0 0)
(-8.371261134682866e-05 0 0)
(-3.709730737886382e-05 0 0)
(8.81552079504029e-06 0 0)
(5.320083817341459e-05 0 0)
(9.616697460213757e-05 0 0)
(0.0001369846618129268 0 0)
(0.000174683457479944 0 0)
(0.000208641837877417 0 0)
(0.0002388004708249521 0 0)
(0.0002639836353578124 0 0)
(0.0002831922607391485 0 0)
(0.000296799835873139 0 0)
(0.0003016572767426926 0 0)
(0.0002995536324661715 0 0)
(0.0002895440816684299 0 0)
(0.0002709977632720547 0 0)
(0.0002439685855313302 0 0)
(0.0002084694558474038 0 0)
(0.0001660707336529912 0 0)
(0.0001186713934576315 0 0)
(6.899037162251182e-05 0 0)
(1.866481091994045e-05 0 0)
(-3.160595120727338e-05 0 0)
(-8.263929202688903e-05 0 0)
(-0.0001317741528517292 0 0)
(-0.000181128538925139 0 0)
(-0.0002298421206597269 0 0)
(-0.0002772277931473322 0 0)
(-0.0003225495692452422 0 0)
(-0.0003656305071274609 0 0)
(-0.0004057190674015251 0 0)
(-0.0004414240112941788 0 0)
(-0.000471809795637803 0 0)
(-0.0004970284177768982 0 0)
(-0.0005147312617299603 0 0)
(-0.0005269465685527602 0 0)
(-0.0005306371547688203 0 0)
(-0.0005256325959880022 0 0)
(-0.000511907506391557 0 0)
(-0.0004891112854328401 0 0)
(-0.0004577836270502609 0 0)
(-0.0004189944519319819 0 0)
(-0.0003752645957052409 0 0)
(-0.0003295093628973747 0 0)
(-0.0002834493505728441 0 0)
(-0.0002370683896277793 0 0)
(-0.0001921202395720831 0 0)
(-0.0001450691382765419 0 0)
(-9.984350574557548e-05 0 0)
(-5.562866554271663e-05 0 0)
(-1.28138470894865e-05 0 0)
(2.810002943460065e-05 0 0)
(6.646460313773804e-05 0 0)
(0.000101005493333612 0 0)
(0.0001319645207116449 0 0)
(0.0001586649392502729 0 0)
(0.0001794875718821331 0 0)
(0.000194746997485666 0 0)
(0.0002027289196023299 0 0)
(0.0002026493752192537 0 0)
(0.0001952746260063479 0 0)
(0.0001794202861624067 0 0)
(0.0001552127043065528 0 0)
(0.0001223691113962552 0 0)
(8.193241229191829e-05 0 0)
(3.603323492623016e-05 0 0)
(-1.316947711282199e-05 0 0)
(-6.325931625574482e-05 0 0)
(-0.000113078052467985 0 0)
(-0.0001642523453063892 0 0)
(-0.0002129934811838514 0 0)
(-0.0002626038212241067 0 0)
(-0.0003111143358639737 0 0)
(-0.0003588581783457756 0 0)
(-0.0004047838692434944 0 0)
(-0.0004483835669410602 0 0)
(-0.0004895434265914001 0 0)
(-0.0005269089933441061 0 0)
(-0.0005590785664898795 0 0)
(-0.0005862382685964558 0 0)
(-0.0006070070230159807 0 0)
(-0.0006205528875602702 0 0)
(-0.0006279238524772007 0 0)
(-0.0006262719982076772 0 0)
(-0.0006158543050167395 0 0)
(-0.0005964455685406595 0 0)
(-0.0005681114678970539 0 0)
(-0.0005321097924410136 0 0)
(-0.000489944520388061 0 0)
(-0.0004455558881495432 0 0)
(-0.000399942194174296 0 0)
(-0.0003543440676670393 0 0)
(-0.0003094310923263269 0 0)
(-0.0002640301508458026 0 0)
(-0.000218898373538137 0 0)
(-0.000174746662656256 0 0)
(-0.0001321730850012503 0 0)
(-9.12706520664656e-05 0 0)
(-5.251481388271679e-05 0 0)
(-1.714222871098684e-05 0 0)
(1.425136764508721e-05 0 0)
(4.217556189791706e-05 0 0)
(6.481823184629722e-05 0 0)
(8.122155535567944e-05 0 0)
(9.232348719598115e-05 0 0)
(9.403782466628427e-05 0 0)
(8.912983333067998e-05 0 0)
(7.610202288707021e-05 0 0)
(5.459970885652994e-05 0 0)
(2.461492088496557e-05 0 0)
(-1.36127853694001e-05 0 0)
(-5.788774809918966e-05 0 0)
(-0.000106343726442786 0 0)
(-0.0001560438296153763 0 0)
(-0.0002059415172022025 0 0)
(-0.0002559497529631765 0 0)
(-0.0003063611552034352 0 0)
(-0.0003548556518595193 0 0)
(-0.0004034325505618088 0 0)
(-0.0004513982317903714 0 0)
(-0.000497792115539076 0 0)
(-0.0005421163754999904 0 0)
(-0.0005837552186435821 0 0)
(-0.0006230429788720568 0 0)
(-0.0006565394355941836 0 0)
(-0.0006855132181900816 0 0)
(-0.0007091217954770543 0 0)
(-0.0007247115873351747 0 0)
(-0.000735165626572153 0 0)
(-0.0007367789601477623 0 0)
(-0.0007295032015316763 0 0)
(-0.0007135588340936253 0 0)
(-0.0006884484441396074 0 0)
(-0.0006552115587184407 0 0)
(-0.0006154008416151016 0 0)
(-0.0005716617102677009 0 0)
(-0.000527426518318395 0 0)
(-0.0004824402481612738 0 0)
(-0.0004373882662517277 0 0)
(-0.0003940078025781041 0 0)
(-0.0003482659322826575 0 0)
(-0.0003048096991859185 0 0)
(-0.0002623395325332011 0 0)
(-0.0002215545087030494 0 0)
(-0.0001827163962429673 0 0)
(-0.0001464609856077345 0 0)
(-0.0001147408588595295 0 0)
(-8.55800057835754e-05 0 0)
(-6.1598551951329e-05 0 0)
(-4.370977126195178e-05 0 0)
(-3.091484722614241e-05 0 0)
(-2.600957700225098e-05 0 0)
(-2.898895263252326e-05 0 0)
(-3.940364472828663e-05 0 0)
(-5.821434436556567e-05 0 0)
(-8.549554513957687e-05 0 0)
(-0.0001209834733081911 0 0)
(-0.0001638569766144538 0 0)
(-0.0002104650566609599 0 0)
(-0.0002608011196747104 0 0)
(-0.0003101524328141519 0 0)
(-0.0003596129565849179 0 0)
(-0.0004104386101639692 0 0)
(-0.0004585134348513039 0 0)
(-0.0005074443078117367 0 0)
(-0.0005552272905501115 0 0)
(-0.0006020661150195085 0 0)
(-0.0006470681925348292 0 0)
(-0.0006893469019413036 0 0)
(-0.0007296380369055036 0 0)
(-0.0007650824938892192 0 0)
(-0.000795598967179824 0 0)
(-0.000821382635604772 0 0)
(-0.0008401906247219842 0 0)
(-0.0008517758255401828 0 0)
(-0.0008572370184454577 0 0)
(-0.0008533557674017268 0 0)
(-0.0008407080824577804 0 0)
(-0.0008190563834621982 0 0)
(-0.0007886738689767031 0 0)
(-0.0007514689924067514 0 0)
(-0.0007088790033761187 0 0)
(-0.0006658435606365773 0 0)
(-0.0006215134703320934 0 0)
(-0.0005770194645997589 0 0)
(-0.000533673701454148 0 0)
(-0.0004896607122168768 0 0)
(-0.0004461072135511881 0 0)
(-0.0004036633368222581 0 0)
(-0.0003630606161318066 0 0)
(-0.00032418080200924 0 0)
(-0.0002875984902433284 0 0)
(-0.0002545897104377238 0 0)
(-0.0002257072727012822 0 0)
(-0.0001997055428766659 0 0)
(-0.0001804456190823012 0 0)
(-0.0001664395362976038 0 0)
(-0.0001582120014291679 0 0)
(-0.0001595705185710429 0 0)
(-0.0001674826165597318 0 0)
(-0.0001834444201888873 0 0)
(-0.000208037874054021 0 0)
(-0.0002408224131467406 0 0)
(-0.0002815181133856638 0 0)
(-0.0003270741030998772 0 0)
(-0.0003763948748923331 0 0)
(-0.0004261785189679574 0 0)
(-0.0004754674744758913 0 0)
(-0.0005250764229187756 0 0)
(-0.000575109476742469 0 0)
(-0.000622732757406748 0 0)
(-0.0006707510108558918 0 0)
(-0.0007178796115772638 0 0)
(-0.0007633898816451626 0 0)
(-0.0008066098204794403 0 0)
(-0.0008469648161871725 0 0)
(-0.0008852457462309515 0 0)
(-0.0009165413557812065 0 0)
(-0.0009445274488170785 0 0)
(-0.0009659981952665372 0 0)
(-0.0009797058872052144 0 0)
(-0.0009881901500734609 0 0)
(-0.0009876707909977399 0 0)
(-0.0009782117912345211 0 0)
(-0.0009600081968955253 0 0)
(-0.0009329149538513956 0 0)
(-0.0008980831923716036 0 0)
(-0.0008577696147712195 0 0)
(-0.0008148174343767994 0 0)
(-0.0007719065404577482 0 0)
(-0.0007281036488914782 0 0)
(-0.0006844609186505816 0 0)
(-0.0006426487773141811 0 0)
(-0.0005981984172707597 0 0)
(-0.0005566000470310853 0 0)
(-0.0005159502797484967 0 0)
(-0.0004771490810267317 0 0)
(-0.0004405120524153658 0 0)
(-0.000406350686935968 0 0)
(-0.0003774555181841415 0 0)
(-0.0003501229415190213 0 0)
(-0.0003291639688050655 0 0)
(-0.0003138906876786088 0 0)
(-0.0003040601711129568 0 0)
(-0.0003019243221341496 0 0)
(-0.000308063934971118 0 0)
(-0.0003214142304300471 0 0)
(-0.000343297230950828 0 0)
(-0.0003734851044672103 0 0)
(-0.0004115395430359517 0 0)
(-0.0004561313718075595 0 0)
(-0.0005036899381142749 0 0)
(-0.0005537987707183157 0 0)
(-0.0006033955647660287 0 0)
(-0.000652286000836673 0 0)
(-0.0007027506250773233 0 0)
(-0.0007502151956030986 0 0)
(-0.0007985374361611107 0 0)
(-0.0008454998991538732 0 0)
(-0.0008915758122789807 0 0)
(-0.0009355643542430717 0 0)
(-0.0009765832426722988 0 0)
(-0.001015925428704178 0 0)
(-0.001049336215401817 0 0)
(-0.001078315197386848 0 0)
(-0.001103055808874495 0 0)
(-0.001119631542870698 0 0)
(-0.001129161942398856 0 0)
(-0.001132697901372781 0 0)
(-0.001126599163779444 0 0)
(-0.001111729427269092 0 0)
(-0.001088061053453558 0 0)
(-0.001056007564775307 0 0)
(-0.001017960152095166 0 0)
(-0.0009758571272442249 0 0)
(-0.0009336210242806386 0 0)
(-0.0008911877785026998 0 0)
(-0.0008476758734120027 0 0)
(-0.0008058621073943308 0 0)
(-0.0007634536406346775 0 0)
(-0.0007213589385916111 0 0)
(-0.000680796017355014 0 0)
(-0.0006421813493769183 0 0)
(-0.0006054588059154599 0 0)
(-0.0005709491208129356 0 0)
(-0.0005406724164360343 0 0)
(-0.0005136165821750741 0 0)
(-0.000490493696967454 0 0)
(-0.0004743657296970376 0 0)
(-0.0004628103385218211 0 0)
(-0.0004574900900842865 0 0)
(-0.0004619706075011324 0 0)
(-0.0004728501041690175 0 0)
(-0.0004918035525990973 0 0)
(-0.0005193399593125963 0 0)
(-0.0005549046466876819 0 0)
(-0.0005974734212930074 0 0)
(-0.0006443288623632591 0 0)
(-0.0006936168601510688 0 0)
(-0.000743614935849506 0 0)
(-0.0007923969595810666 0 0)
(-0.0008418118773316209 0 0)
(-0.0008914427675216122 0 0)
(-0.0009382335880077185 0 0)
(-0.0009857083746440645 0 0)
(-0.001032093559866793 0 0)
(-0.001076693464617447 0 0)
(-0.001118840532106873 0 0)
(-0.001157980520266948 0 0)
(-0.001194812072759498 0 0)
(-0.001224781692906022 0 0)
(-0.001250863959665657 0 0)
(-0.001270832040431863 0 0)
(-0.001282664444226138 0 0)
(-0.001288753615858991 0 0)
(-0.001286372941008235 0 0)
(-0.001274647299557555 0 0)
(-0.001254460759133127 0 0)
(-0.001225631092359956 0 0)
(-0.001189699917025238 0 0)
(-0.001149463530654074 0 0)
(-0.001107466608095141 0 0)
(-0.001065613149873762 0 0)
(-0.001023602550203097 0 0)
(-0.0009810270387558594 0 0)
(-0.0009409522368634441 0 0)
(-0.0008977460354257769 0 0)
(-0.0008581212075550719 0 0)
(-0.0008192858324015707 0 0)
(-0.0007826537765840205 0 0)
(-0.00074815331149533 0 0)
(-0.0007163245165015423 0 0)
(-0.0006897613981397046 0 0)
(-0.0006652660585398915 0 0)
(-0.0006464370558160876 0 0)
(-0.0006350919679608094 0 0)
(-0.0006275192099434311 0 0)
(-0.0006280085007494699 0 0)
(-0.0006374297702085988 0 0)
(-0.0006537216219569779 0 0)
(-0.0006785293781933941 0 0)
(-0.0007115518454862194 0 0)
(-0.0007518667295907532 0 0)
(-0.0007977082101985655 0 0)
(-0.0008460366842394444 0 0)
(-0.0008956159517385804 0 0)
(-0.0009456513769109339 0 0)
(-0.000993743163642652 0 0)
(-0.001044038110107428 0 0)
(-0.001091279444890377 0 0)
(-0.001138653287942059 0 0)
(-0.001185008742967879 0 0)
(-0.001230307990190174 0 0)
(-0.00127331180673879 0 0)
(-0.001313102291144887 0 0)
(-0.001351165875497768 0 0)
(-0.001382999011466142 0 0)
(-0.001410472850664174 0 0)
(-0.001433587720172082 0 0)
(-0.001448334677756842 0 0)
(-0.001455474398133844 0 0)
(-0.001457313524853325 0 0)
(-0.001449112600141708 0 0)
(-0.001432111583618479 0 0)
(-0.001406651548006629 0 0)
(-0.001373471848881952 0 0)
(-0.001334863498619087 0 0)
(-0.001293952085930511 0 0)
(-0.001252222925074715 0 0)
(-0.001211438789751746 0 0)
(-0.001169329434054108 0 0)
(-0.001128585434375952 0 0)
(-0.001088610590995578 0 0)
(-0.001047265052640912 0 0)
(-0.001008893107086467 0 0)
(-0.000972345887084839 0 0)
(-0.0009377869998818319 0 0)
(-0.0009055706407987989 0 0)
(-0.0008775066859832413 0 0)
(-0.000853022127558426 0 0)
(-0.0008328310143555472 0 0)
(-0.0008187869850701194 0 0)
(-0.0008112030455331138 0 0)
(-0.0008082724484655597 0 0)
(-0.0008154850624034551 0 0)
(-0.000829651219528472 0 0)
(-0.0008513473462402153 0 0)
(-0.000881765617898627 0 0)
(-0.0009198564689798123 0 0)
(-0.0009638610119228991 0 0)
(-0.001011875490649985 0 0)
(-0.001060697495196694 0 0)
(-0.001110386209652172 0 0)
(-0.001160018658218197 0 0)
(-0.001208110074805306 0 0)
(-0.001258774625493043 0 0)
(-0.001303570414895286 0 0)
(-0.001351048304050499 0 0)
(-0.001396489520446132 0 0)
(-0.001440318540438945 0 0)
(-0.001481413602048253 0 0)
(-0.001519121021787256 0 0)
(-0.001554487224886698 0 0)
(-0.001583422556842322 0 0)
(-0.001606974202868365 0 0)
(-0.001626636563398734 0 0)
(-0.0016358648147403 0 0)
(-0.001638814686708826 0 0)
(-0.001635124261069068 0 0)
(-0.00162148393392169 0 0)
(-0.001599378749895875 0 0)
(-0.001569337343607266 0 0)
(-0.001532767003551486 0 0)
(-0.001493164313047231 0 0)
(-0.001451924859239618 0 0)
(-0.001411109466748893 0 0)
(-0.001371217052931827 0 0)
(-0.001329126526830049 0 0)
(-0.001290652971551991 0 0)
(-0.001249902725087821 0 0)
(-0.001211456054443302 0 0)
(-0.001174769120463629 0 0)
(-0.001140412877086871 0 0)
(-0.001108198348093457 0 0)
(-0.001078639401052305 0 0)
(-0.001054216160526021 0 0)
(-0.001032534540515329 0 0)
(-0.001016547477553145 0 0)
(-0.001007699835330469 0 0)
(-0.001003743737696781 0 0)
(-0.001006158651830006 0 0)
(-0.001019241726458978 0 0)
(-0.001038752457527483 0 0)
(-0.001066068688712505 0 0)
(-0.001101761213926933 0 0)
(-0.001144128501877276 0 0)
(-0.001190569818316441 0 0)
(-0.001239897563646377 0 0)
(-0.001288628011911797 0 0)
(-0.001338394582302347 0 0)
(-0.001387634068903684 0 0)
(-0.001435648457327995 0 0)
(-0.001485684832227903 0 0)
(-0.001529648049293853 0 0)
(-0.001576241825986191 0 0)
(-0.00162067615627374 0 0)
(-0.001662660471411253 0 0)
(-0.001701607036113006 0 0)
(-0.001737207605420757 0 0)
(-0.001768779497766074 0 0)
(-0.001794839180535039 0 0)
(-0.001814582712619755 0 0)
(-0.001830117810244581 0 0)
(-0.001833976706049538 0 0)
(-0.001832917363109208 0 0)
(-0.001823467628672924 0 0)
(-0.001804293857067887 0 0)
(-0.001777467574697321 0 0)
(-0.001743696521226076 0 0)
(-0.001705037506534081 0 0)
(-0.001665609189386986 0 0)
(-0.001624416155153001 0 0)
(-0.001584275578222216 0 0)
(-0.001545388366149905 0 0)
(-0.001503893105550448 0 0)
(-0.001467895305213935 0 0)
(-0.001425307850167235 0 0)
(-0.001390886599041775 0 0)
(-0.001355991337110961 0 0)
(-0.001323866423064683 0 0)
(-0.001294511109464385 0 0)
(-0.001267716845492656 0 0)
(-0.001246629113246989 0 0)
(-0.001229086541016982 0 0)
(-0.001217027349225007 0 0)
(-0.001213453700253502 0 0)
(-0.001213427693329282 0 0)
(-0.001221422905863801 0 0)
(-0.001239950605541726 0 0)
(-0.001265078818635492 0 0)
(-0.001297854085547008 0 0)
(-0.001338228495067783 0 0)
(-0.001383621066754152 0 0)
(-0.00143160803854644 0 0)
(-0.001481383448015007 0 0)
(-0.001529909013921643 0 0)
(-0.001579299933556818 0 0)
(-0.001629035656069769 0 0)
(-0.00167584570299589 0 0)
(-0.001725832825381089 0 0)
(-0.001767984569327425 0 0)
(-0.001814811357671239 0 0)
(-0.001857226521654036 0 0)
(-0.001897570206844909 0 0)
(-0.001933425142161845 0 0)
(-0.001966775327432353 0 0)
(-0.001994635607757648 0 0)
(-0.002017512113810848 0 0)
(-0.002033132932412572 0 0)
(-0.002043979867584713 0 0)
(-0.002042517473173756 0 0)
(-0.002037476645970083 0 0)
(-0.002022235760853963 0 0)
(-0.001997752340586789 0 0)
(-0.001966947317846956 0 0)
(-0.001930358588347197 0 0)
(-0.001891209400901542 0 0)
(-0.001852156282037936 0 0)
(-0.001811843980592801 0 0)
(-0.001771846360049902 0 0)
(-0.001734102542808749 0 0)
(-0.001693578038766179 0 0)
(-0.00165919514842693 0 0)
(-0.001614844087467702 0 0)
(-0.001586492790289015 0 0)
(-0.001553005970373268 0 0)
(-0.001524051123845638 0 0)
(-0.001495373855823642 0 0)
(-0.001474205570795543 0 0)
(-0.001454703733461106 0 0)
(-0.001442287251838718 0 0)
(-0.00143406339960751 0 0)
(-0.00143597219929039 0 0)
(-0.00143812042275045 0 0)
(-0.001455140097966879 0 0)
(-0.001475563255647208 0 0)
)
;

boundaryField
{
    inlet
    {
        type            calculated;
        value           uniform (-8.230545330210761e-05 0 0);
    }
    outlet
    {
        type            calculated;
        value           uniform (-0.001491080994333578 0 0);
    }
    frontAndBack
    {
        type            empty;
    }
}


// ************************************************************************* //
