/*--------------------------------*- C++ -*----------------------------------*\
| =========                 |                                                 |
| \\      /  F ield         | OpenFOAM: The Open Source CFD Toolbox           |
|  \\    /   O peration     | Version:  v2012                                 |
|   \\  /    A nd           | Website:  www.openfoam.com                      |
|    \\/     M anipulation  |                                                 |
\*---------------------------------------------------------------------------*/
FoamFile
{
    version     2.0;
    format      ascii;
    class       volScalarField;
    location    "0.01";
    object      p;
}
// * * * * * * * * * * * * * * * * * * * * * * * * * * * * * * * * * * * * * //

dimensions      [1 -1 -2 0 0 0 0];


internalField   nonuniform List<scalar> 
1000
(
101303.7701864958
101309.3896049787
101304.517615214
101294.6517502475
101292.1637891586
101286.5388839708
101281.9045312826
101281.6286460386
101276.5298003598
101276.1936638276
101276.4455008071
101276.4327278495
101277.7401036189
101279.393067651
101281.0553051855
101286.1228539401
101289.4453968554
101294.8972897056
101301.2898296889
101306.3341052739
101313.117189526
101319.5717442965
101326.1982888927
101333.0057908344
101339.3375281964
101345.8920338616
101351.7054963081
101357.1030901908
101362.2427144447
101366.3062500181
101371.7998080041
101372.8694791712
101372.8126682074
101372.8674338423
101372.0731297271
101372.0058042174
101370.1434327112
101367.690915127
101366.2815701419
101360.9622597321
101356.6251316153
101352.5414345177
101344.2266470288
101338.9313382987
101332.3162997942
101324.5166616526
101318.7770645602
101311.8828911434
101305.3869090896
101299.5604780149
101293.6414654639
101288.4999779993
101283.1037170674
101278.0125210591
101277.6544049346
101277.7589703477
101277.8137955675
101278.1896240568
101279.2303968627
101279.8491544564
101282.0936341856
101284.8042892035
101287.4857721675
101292.4224823714
101297.1855785134
101302.6249822387
101309.6531279099
101315.9517354764
101323.038624671
101330.3444416553
101336.63902282
101343.3176831766
101349.4971780075
101355.1185437385
101360.6326708089
101366.6377614587
101371.6525825372
101371.9176056004
101371.810907497
101371.7636890416
101371.2928627401
101370.4725201782
101369.7945950218
101367.5056431871
101365.6506466614
101362.827194609
101358.3234212235
101354.6589696287
101348.6442542516
101342.6036331146
101336.3898136789
101328.7095950518
101322.0415567437
101314.6816669975
101307.7451216323
101301.4158227194
101294.9953192008
101289.6856330456
101282.7555924196
101278.7045130496
101278.6201803702
101278.7319836296
101278.7352917262
101279.2641079831
101279.7761508112
101280.8103969875
101282.6026157213
101284.2836474936
101287.5868577663
101290.7781488203
101295.000399269
101300.4289532182
101305.6559796015
101312.288916832
101319.1335383361
101325.9953499101
101333.3504706079
101340.4550559191
101347.181106211
101353.6901344766
101359.444572709
101366.5612369011
101370.7770676807
101371.1231610906
101371.0804182707
101370.7725527023
101370.8247652359
101369.8283255081
101368.8815866212
101368.0450568811
101365.1690731004
101363.4508378455
101359.8124260493
101355.4622413387
101351.6361810598
101345.2044761725
101339.5449805885
101333.1234406729
101325.5138644058
101318.6993386209
101311.1726962067
101303.9804489475
101297.0961836219
101290.8043308315
101282.757603027
101279.2169786209
101279.2157546754
101279.254438439
101279.2721317148
101280.053891922
101280.222835101
101281.1333925019
101283.1680760927
101283.9912724613
101287.1217448606
101290.3186812734
101293.1827011935
101298.8784486429
101303.2198421056
101309.1343925189
101316.1283339579
101322.1327584
101329.8692650489
101336.9634790151
101343.9286124342
101351.5001264648
101357.6098808188
101366.3129360756
101370.2778524237
101370.2971270795
101370.276096778
101370.2187156369
101369.8129196586
101369.37391888
101368.6440905196
101367.168548813
101365.8121183429
101363.3499292974
101360.5110517888
101357.2732124483
101352.6707779278
101348.0188373758
101342.4166567262
101335.960444791
101329.4469940258
101322.1735187658
101314.7180507438
101307.314169643
101299.6543663841
101292.8296170362
101283.2544164957
101279.9663509088
101279.9506861725
101279.8135836793
101280.1932575324
101280.4040756761
101280.6964197496
101282.1250237555
101282.6745752343
101284.5253954871
101287.1652685176
101288.8658253392
101293.1403207733
101296.8480823714
101300.9711607345
101307.3592979855
101312.4781086471
101319.1547223046
101326.4171071277
101333.2136688932
101340.9241095702
101348.3923789752
101355.2917624777
101364.5390087096
101369.5963135126
101369.6825551338
101369.6594155437
101369.5951097212
101369.0932624902
101369.080312576
101368.0143055615
101366.89400504
101365.8927456267
101363.0917343709
101361.421912806
101358.1110143631
101353.7488025082
101350.3360005525
101344.3803615122
101338.7809446255
101332.7875258303
101325.2871500188
101318.3808883017
101310.6736399516
101302.7202256452
101295.6427740716
101285.7518020125
101280.3874616436
101280.3090238398
101280.3277625103
101280.4195511646
101280.7275532865
101281.2342223292
101281.9205859675
101283.1600404123
101284.6130387669
101286.4651814058
101289.1867199366
101292.0068554799
101295.7563202808
101300.0940305587
101304.8229219484
101310.557043015
101316.4725751431
101323.1866753584
101330.2280026374
101337.5053614831
101345.2329642532
101352.50694186
101361.3653133736
101368.8385989094
101369.1911769118
101369.1645109756
101369.0917275627
101368.9096785948
101368.453849748
101367.875282419
101366.9273018279
101365.5032406403
101363.7298503492
101361.6187277175
101358.449706813
101355.2821383638
101351.2797610407
101346.1700898419
101341.2514041069
101334.9901978815
101328.302634675
101321.4890846943
101313.6386811801
101305.931048442
101298.3366068549
101289.0058874439
101281.4349136796
101281.082398562
101281.0721607501
101281.2399409054
101281.3718424052
101281.7710152785
101282.6319670099
101283.3134417229
101284.6563626939
101286.7057054266
101288.3591733744
101291.4797799319
101294.8800887832
101298.2757568675
101303.3053220864
101308.3790014864
101313.7347341867
101320.57287165
101327.1104377295
101334.1686489336
101342.0226585994
101349.455509245
101357.0917629707
101367.0892972583
101368.7639806355
101368.7600301028
101368.6912243462
101368.5581300187
101368.1333953884
101367.7325727424
101366.7529401054
101365.2602316475
101364.4878523327
101361.6530083493
101359.0863350742
101356.6579449256
101351.9378987887
101348.031365944
101343.1325258431
101336.9937027381
101331.1262911924
101324.2338290225
101316.7881596218
101309.3369248089
101301.3936631032
101293.6101409398
101283.2283154749
101281.4691576976
101281.3825200886
101281.3761550345
101281.7932762142
101281.9643549352
101282.5326051492
101283.758038703
101284.3908172172
101286.3836445096
101288.4241611771
101290.5401359851
101294.1773552683
101297.3473090219
101301.7132853594
101306.7511462051
101311.8238240619
101318.1198005474
101324.4989149525
101331.4636074002
101338.8697792085
101346.4680879779
101353.7312706821
101363.8232230211
101368.1244681839
101368.1733307009
101368.0657757121
101368.0627890429
101367.6095025761
101367.0972794471
101366.7189814219
101365.1202757677
101364.0797961062
101362.2580178625
101359.4772968841
101357.1619211189
101353.3200673667
101349.2975278917
101344.8259823215
101339.1745676078
101333.5070605207
101326.882193955
101319.8009154788
101312.4761423041
101304.419668219
101297.1034693488
101286.2845414794
101282.1727230862
101282.1697388069
101282.0181947321
101282.2847522083
101282.5515546224
101282.9168309109
101283.8488783135
101284.644974578
101286.3025637596
101288.1137893788
101290.1315408443
101293.5004317672
101296.4069332889
101300.4798743405
101305.2917752154
101309.8549866497
101315.9941122821
101322.0137340028
101328.5745894523
101336.0502889822
101343.187238046
101350.6994335305
101359.4015534256
101367.208050325
101367.6215354533
101367.572126259
101367.5335461744
101367.3126412369
101366.7656442807
101366.4086618169
101365.2377841086
101363.8698810104
101362.588195969
101360.0233720324
101357.4368640487
101354.6659749717
101350.2853510101
101346.1998484849
101341.5003095504
101335.1797723783
101329.5010392386
101322.7567981742
101315.0387401007
101307.9034325924
101300.102874394
101291.0375281813
101283.0701798716
101282.6340780532
101282.630176193
101282.7714553445
101282.9213524267
101283.3488553536
101284.1430732905
101284.7986334078
101286.2788218959
101288.0200888816
101289.6350580626
101292.9031302852
101295.4975085008
101299.2024515846
101303.8596298283
101308.0057117062
101313.9698212538
101319.6883822348
101325.8715831896
101333.2778712399
101340.0401433285
101347.7158889629
101355.1386944641
101365.1107720238
101367.0120326492
101367.0846020784
101367.0974695206
101366.7229100064
101366.5674630917
101366.0655794191
101364.8884171648
101364.384814557
101362.4092496374
101360.4437170932
101358.602019158
101354.7589996329
101351.9374170149
101347.7515680806
101342.4294341838
101337.9578646421
101331.4593065623
101325.0195621384
101318.448937647
101310.6003717462
101303.1161842655
101295.5938169776
101285.1479449055
101283.1988261911
101283.1629763734
101283.2135914816
101283.3726075175
101283.8107700237
101284.120342007
101285.2039221374
101286.200948788
101287.527632748
101289.8885901472
101291.7875038841
101295.0251967307
101298.3866092995
101302.0651182228
101307.0943232213
101311.7789411483
101317.4913481817
101323.8365293909
101330.0799777203
101337.2664164511
101344.6224355125
101351.4148179393
101361.1229477047
101366.3707702935
101366.5810833
101366.5935152562
101366.3198113113
101366.2787057425
101365.7337844539
101364.8012754454
101364.2756229672
101362.461448329
101360.8415522889
101358.9072954115
101355.6427170142
101352.899583402
101348.7849737891
101344.2918147097
101339.5993334549
101333.521985874
101327.6977389805
101320.8300132974
101313.572379585
101306.2700236409
101298.8313211667
101288.8243806868
101283.8587983742
101283.6270673806
101283.6674199449
101283.9313937314
101283.9253369081
101284.6241014136
101285.4610928804
101285.9545765897
101287.926583249
101289.3172352339
101291.3395263757
101294.56994782
101297.1846602326
101301.2531334647
101305.5833344558
101310.0874141734
101315.8338978923
101321.4583312288
101327.8279947885
101334.7108007839
101341.581079958
101348.8992144136
101356.6493615357
101365.1679378514
101366.0692270908
101366.0513026302
101365.9011537459
101365.8528609027
101365.2711434615
101364.6266186878
101364.1069204115
101362.2784829346
101361.2697848285
101359.3129599917
101356.0067930424
101354.0264007654
101349.854824393
101345.4345648808
101341.5221927665
101335.3387128888
101329.7044127579
101323.5629264096
101316.0770579786
101309.356469736
101301.8268596405
101293.7402051588
101285.0880339105
101284.3763204767
101284.3099647093
101284.4217137632
101284.6709331053
101284.7606916628
101285.6219351635
101286.269947585
101286.8971704638
101289.2240095943
101290.7132330785
101293.200913068
101296.8981318138
101299.8857750082
101304.3417438045
101309.2146964864
101314.0148532631
101319.8890370637
101325.7334633406
101332.0918932468
101338.9101076425
101345.6853346297
101352.3167156439
101361.5775292736
101364.6453362769
101364.9766645816
101364.8885953303
101365.0271359866
101364.6317277404
101364.4162276465
101364.300699441
101363.1461227407
101362.0518694123
101360.5394548389
101358.1669074413
101355.5129892328
101352.0331646777
101348.1535169383
101343.6968141366
101338.4367554906
101332.7854384198
101326.3833642465
101319.4226208105
101312.2729272729
101304.4673829308
101296.7257618737
101285.9729592409
101282.4344583847
101279.8198887232
101279.159941227
101278.2818715343
101277.7678564472
101277.446186375
101277.3283216045
101277.6486100637
101278.3259069749
101279.9754124811
101281.2447513107
101283.8402245792
101287.3073312147
101290.7128620765
101295.6797590442
101300.3528602652
101305.7574976168
101312.7306606038
101319.2734753651
101326.7745136389
101334.9370355187
101343.5785341111
101351.12400576
101360.5449901482
101363.9620579995
101367.8141556558
101369.5258187615
101370.7054632476
101372.0174053908
101373.0481975328
101373.4142586274
101373.6294048789
101372.9638763
101371.6476502406
101369.6578096036
101366.4048379259
101362.9484029204
101357.9536466796
101352.0540423801
101346.5670833732
101339.0323929638
101331.8329238828
101324.5703481183
101314.9883625355
101308.0136333635
101299.3048846318
101290.6190877733
101286.1666545329
101283.7306002993
101281.2636624006
101280.5124800117
101280.1322316758
101280.0519628964
101280.2199844063
101280.9208670167
101281.9091297284
101282.9948828252
101285.1684207907
101287.8326566979
101290.7973949452
101295.0768768763
101300.0078566787
101305.1092601246
101310.906015744
101317.7711625022
101324.9154866441
101331.9894938695
101339.7591032741
101348.2493615396
101354.9386219564
101362.3122943223
101366.168723858
101369.3027531314
101371.0365543009
101372.2362019077
101373.0769771096
101373.4859827291
101373.334587102
101372.9020367346
101371.7055140744
101369.6396600816
101367.48585226
101364.481265873
101359.9336695217
101354.8662266197
101348.8765933371
101342.211321595
101334.853089805
101327.2760846158
101319.5250674148
101311.3758807989
101303.0690807335
101296.1582387799
101288.4585735361
101285.4522533631
101282.7067028398
101280.978865762
101280.1737742146
101280.0195503749
101280.3716208251
101281.3412785746
101282.0151149945
101283.3676630961
101285.5724358758
101287.6708368401
101290.4637523056
101294.5199269882
101298.718168624
101303.6280168219
101309.4639297545
101315.5995649684
101322.1741734441
101329.8599952836
101336.905322975
101344.2174159958
101351.5719488468
101359.775155078
101363.9686710361
101368.4296054456
101370.706129327
101372.2678916368
101373.5651965031
101374.1558387933
101373.9573470797
101372.94994969
101371.7894949174
101370.5976294259
101367.7918264011
101364.701656677
101361.4084393259
101356.5022499367
101351.2210728934
101345.0392894686
101337.867620675
101330.2858511125
101322.3767585683
101314.6976736454
101306.8945842168
101299.1925477085
101291.7829233361
101287.0715511865
101283.8740201725
101281.8759283172
101280.6664906447
101279.8654039812
101280.6088968122
101280.6729830116
101281.9851583602
101283.6719217762
101284.8736476825
101287.6956270931
101290.6003887293
101293.5663655429
101297.9983196713
101302.7907997988
101307.7353986718
101313.8108702199
101320.4263494969
101327.3317598622
101334.7185478926
101341.74012586
101348.9099516549
101355.7213319224
101362.8205720864
101366.9532634889
101370.0040761869
101372.0935034667
101373.5477616657
101374.6363062574
101374.6201665777
101374.0226165261
101372.847534043
101371.5121205948
101369.2135365294
101365.8698814354
101362.5513441577
101358.8307308191
101353.2261930537
101347.4016934311
101341.5369638049
101333.9551082547
101326.4082971164
101318.5183141547
101310.5226074892
101302.9254828162
101295.9525638298
101288.8169707995
101285.4917223837
101282.7819033413
101281.2311954115
101280.1906947967
101280.3790977983
101280.6764302595
101281.4335613479
101282.9164677464
101284.4485973824
101286.5539878516
101289.5964154859
101292.8875827357
101296.4427062877
101301.0949427252
101306.1174849944
101311.4860551931
101317.6554646654
101324.5219429857
101331.4721237949
101338.3612427139
101345.4175678991
101352.5325716895
101359.3123194971
101364.5116362048
101367.9788031089
101370.8221675744
101372.6509739959
101374.0728189089
101374.6791290104
101374.4857811111
101373.2686632961
101372.4408857262
101370.4323234771
101366.700889879
101363.9964012007
101359.9276270166
101354.7374059352
101350.2757676172
101343.737067035
101336.8369427237
101330.4228985754
101322.7182393798
101314.6978944773
101307.4572080269
101300.2426189831
101292.827340023
101287.6568322209
101284.5366723647
101282.9131273648
101281.1067321795
101280.9417007652
101281.3196723855
101281.7468246547
101282.8363437027
101284.7867476954
101286.4618943754
101288.9644052604
101292.1837122943
101295.3969669434
101299.8636529401
101304.7274571939
101309.750521695
101315.7838430896
101322.168245534
101329.189560557
101336.039456082
101342.790975372
101349.8083568831
101356.1209718563
101362.8284993014
101366.2757025228
101369.3861085729
101371.3643700484
101373.2245945514
101373.9490632865
101374.0935105285
101374.0215183099
101373.1431970629
101370.7498955467
101368.7766641029
101365.1031162723
101360.946521913
101356.8854545975
101351.2791855046
101345.3030048806
101339.3730963297
101332.3561405698
101324.7426736264
101317.6253218762
101310.0136870609
101302.4327416751
101295.5752855456
101288.7957767607
101285.0501591376
101282.528735265
101280.480746569
101279.9115077561
101280.3366013493
101281.1024038253
101281.694016404
101283.4766509044
101285.6761020197
101287.8665062247
101291.0772339065
101294.0603555555
101297.999053203
101302.7680015129
101307.1232883925
101313.0978748731
101319.4204593308
101325.5842346903
101332.7041350134
101339.8574654853
101346.4241617612
101353.3156232091
101359.4441972553
101364.9332194385
101367.7546517373
101369.3694155681
101371.7286038386
101372.6861719812
101372.9300816916
101373.0875988332
101373.0158492075
101371.7243714187
101369.5196831739
101366.2851717119
101362.7736443955
101358.4793113639
101353.2025395428
101347.7189730206
101341.2348356972
101334.4263765491
101328.1031324167
101320.2843666518
101313.0153204767
101305.9499825045
101297.9267644236
101291.9571667432
101285.5807451449
101282.7076225928
101280.3727663002
101279.092364743
101278.7047606339
101279.5120804388
101280.2960281936
101281.9564802755
101283.9870457652
101285.9970423126
101288.9564479359
101292.1234078744
101295.7378349372
101299.9355890879
101304.6209890795
101309.8515936258
101315.3922611676
101322.0306330078
101328.57407152
101335.0085976205
101342.7016418304
101349.0919964604
101355.3063253697
101361.8221846872
101365.7754932018
101368.0685093203
101369.5893215785
101370.939556585
101371.0865358361
101370.5833462585
101370.7454858002
101370.1927482563
101368.4571838576
101366.9739665536
101364.2016112008
101359.4377437823
101355.4238923194
101349.7483472178
101342.0687330695
101336.2649928549
101328.8960319919
101320.8949786004
101314.769393892
101306.4209682042
101299.6504945901
101293.4318613684
101287.0400409898
101282.6339019886
101279.1358688516
101278.7924544637
101276.2315837795
101277.298167509
101278.1410331773
101280.1047264677
101280.9329934897
101283.4289148834
101287.2026655726
101288.7449509152
101292.4899468378
101297.7699627002
101300.5799808903
101305.4467235066
101313.1529435943
101316.5872693876
101323.4009991434
101333.7252892438
)
;

boundaryField
{
    inlet
    {
        type            uniformFixedValue;
        uniformValue    sine;
        uniformValueCoeffs
        {
            frequency       constant 3000;
            scale           constant 50;
            level           constant 101325;
        }
        value           uniform 101312.8819131453;
    }
    outlet
    {
        type            waveTransmissive;
        gamma           1.4;
        fieldInf        101325;
        lInf            2.25;
        value           uniform 101335.4411799025;
    }
    frontAndBack
    {
        type            empty;
    }
}


// ************************************************************************* //
