/*--------------------------------*- C++ -*----------------------------------*\
| =========                 |                                                 |
| \\      /  F ield         | OpenFOAM: The Open Source CFD Toolbox           |
|  \\    /   O peration     | Version:  v2012                                 |
|   \\  /    A nd           | Website:  www.openfoam.com                      |
|    \\/     M anipulation  |                                                 |
\*---------------------------------------------------------------------------*/
FoamFile
{
    version     2.0;
    format      ascii;
    class       volScalarField;
    location    "0.01";
    object      rho;
}
// * * * * * * * * * * * * * * * * * * * * * * * * * * * * * * * * * * * * * //

dimensions      [1 -3 0 0 0 0 0];


internalField   nonuniform List<scalar> 
1000
(
1.176237526823674
1.176289096129085
1.176251433978872
1.176169091587567
1.176146182616174
1.17609694923626
1.176056878100569
1.176053385966075
1.176011172620088
1.176008049592542
1.176009421947303
1.176008594611284
1.176019059722828
1.176032580592895
1.176046337569379
1.176088475189144
1.176116138851503
1.176161493006251
1.176214664362343
1.17625665979721
1.176313065413102
1.176366720669038
1.176421766817245
1.176478279348189
1.17653081384249
1.176585166650059
1.176633354572423
1.176678063220248
1.17672062568244
1.176754225904086
1.176799748642855
1.176808568862436
1.176808070077924
1.176808551220324
1.176801932542914
1.176801387201759
1.176785958501296
1.17676564067459
1.176753971940098
1.176709882480129
1.176673933107591
1.176640082410344
1.176571144615949
1.176527240092689
1.17647238862742
1.176407710004696
1.176360112173417
1.176302940356787
1.176249070840247
1.176200753846606
1.176151668945134
1.176109031739552
1.176064282188184
1.176022061757133
1.1760190929027
1.176019961571101
1.176020417506914
1.176023534788523
1.176032165967847
1.176037297333658
1.176055910375088
1.176078389064097
1.17610062575485
1.176141563887887
1.176181062020955
1.176226168136865
1.176284447554733
1.17633667685789
1.17639544155828
1.176456020132807
1.176508212973909
1.176563589253212
1.176614825725453
1.176661433874511
1.176707152030231
1.176756940178865
1.176798517065157
1.176800714310891
1.176799829681388
1.176799438185402
1.176795534668564
1.17678873337139
1.176783112855663
1.176764135477645
1.176748755897684
1.176725346894453
1.176688005784148
1.17665762352368
1.176607753984309
1.176557668775642
1.176506146926918
1.176442464621242
1.176387174247241
1.176326145713672
1.176268626399199
1.176216141606342
1.176162899392137
1.176118868166063
1.176061398699941
1.176027803296656
1.176027103924703
1.176028031095633
1.176028058512516
1.176032443952006
1.176036690268368
1.176045267210477
1.176060129867168
1.176074070463534
1.176101463271532
1.176127927806146
1.176162941468772
1.176207957738141
1.176251302499656
1.176306304503221
1.176363060715812
1.176419958543378
1.176480945449213
1.176539853752168
1.176595622313739
1.176649590453978
1.176697301324473
1.176756305359082
1.176791258013669
1.176794127375513
1.176793772964678
1.17679122045412
1.176791653274233
1.176783391939998
1.176775542604452
1.176768607070672
1.176744762459727
1.176730516668751
1.176700350506927
1.176664282474221
1.176632560072939
1.176579232458418
1.176532306930809
1.176479062207252
1.176415965052298
1.176359459462052
1.176297047670799
1.176237407320184
1.176180319756899
1.17612814407248
1.176061414014549
1.176032051810662
1.176032041619488
1.176032362365824
1.176032509021666
1.176038992068693
1.176040393037561
1.176047944188452
1.176064817477906
1.176071644125724
1.176097604477332
1.17612411570771
1.176147866260352
1.176195098341198
1.176231099205723
1.176280144681622
1.176338139379188
1.176387928444505
1.176452078237367
1.176510901199957
1.176568652792987
1.176631430581075
1.176682087986614
1.176754244786205
1.17678711722116
1.176787276968644
1.176787102589306
1.17678662675879
1.176783262344653
1.176779622605995
1.176773571671381
1.176761338081089
1.176750092013262
1.176729678073328
1.176706140849813
1.176679295693862
1.17664113600561
1.17660256547465
1.176556115586778
1.176502583523656
1.176448576021083
1.176388265319185
1.176326444346469
1.176265049783519
1.176201531576259
1.176144937477009
1.176065532182274
1.176038264522774
1.176038134588644
1.176036997532567
1.176040146114152
1.176041894360154
1.176044318716639
1.176056165939138
1.176060723272084
1.176076071845522
1.176097963704962
1.17611206609883
1.176147512994651
1.176178259902013
1.176212450768544
1.176265423273576
1.176307869808654
1.176363233021158
1.176423452061082
1.176479807778431
1.17654373947579
1.176605661930746
1.17666286681311
1.1767395360288
1.176781465382891
1.176782180389981
1.176781988482194
1.176781455303492
1.176777294527778
1.176777187130641
1.17676834899878
1.176759060680512
1.176750759355314
1.176727536209507
1.176713691757466
1.176686240942609
1.176650073014552
1.176621776891517
1.176572396458231
1.176525968904549
1.176476273960581
1.176414082274377
1.176356816026491
1.176292906491502
1.17622695418851
1.176168264896489
1.17608624189181
1.176041755897876
1.176041105392295
1.176041260792894
1.176042021942657
1.176044576165695
1.176048777904709
1.17605446982694
1.176064748446124
1.176076797917689
1.17609215739247
1.176114726409371
1.176138112935445
1.176169205816399
1.176205176328539
1.176244390317037
1.176291939266565
1.176340991829212
1.176396665185097
1.176455050744016
1.176515392294812
1.176579465654627
1.176639776509509
1.176713222694585
1.176775182767918
1.176778105937695
1.176777884823555
1.176777281363383
1.17677577200862
1.176771992787831
1.176767195967458
1.176759336368151
1.17674752960341
1.176732826517582
1.176715323226219
1.176689048650789
1.176662785952348
1.176629601450069
1.176587235448451
1.176546452617678
1.176494537425182
1.176439085967131
1.176382588986996
1.176317492948039
1.176253579484123
1.176190603248892
1.176113227391068
1.176050442223088
1.176047518860825
1.17604743395324
1.176048825333378
1.176049919168769
1.176053229454007
1.176060369208449
1.17606602057275
1.176077157204855
1.176094151971146
1.176107863845261
1.176133742075443
1.176161939538993
1.176190098421012
1.176231805760637
1.176273878384153
1.176318289438097
1.176374991609363
1.176429200546485
1.17648772577025
1.176552847697884
1.176614476181968
1.176677790849185
1.176760679690714
1.176774564303542
1.176774531549583
1.176773961088303
1.176772857619699
1.176769336209124
1.176766013034335
1.176757891004498
1.176745515049922
1.176739111355705
1.176715607654862
1.176694327199431
1.176674193349176
1.176635058403356
1.176602668271261
1.17656205019944
1.176511149866885
1.176462499409517
1.176405348420186
1.176343609111779
1.176281822338461
1.17621595392865
1.176151409677144
1.176065315084894
1.176050726630284
1.1760500081569
1.176049955392874
1.176053414543849
1.176054833290526
1.176059545739521
1.17606970807724
1.176074955636794
1.176091481776675
1.176108403284081
1.17612595055449
1.176156112667788
1.176182399804605
1.176218604631809
1.176260380383908
1.176302444445979
1.176354651386951
1.176407546830375
1.176465296907823
1.176526706140925
1.176589707203047
1.17664992892842
1.176733601705159
1.176769262855602
1.176769667972139
1.176768776250573
1.176768751493149
1.176764993359386
1.176760746579007
1.176757610171844
1.176744355406678
1.176735728848314
1.176720624555969
1.176697569437218
1.176678372524027
1.176646519068776
1.176613167144221
1.176576092081673
1.176529233455092
1.176482240794024
1.176427309040662
1.176368591760531
1.176307854121909
1.176241047540331
1.176180379029959
1.176090660728205
1.176056562019171
1.176056537273678
1.176055280538852
1.176057491081435
1.17605970364424
1.176062732844619
1.17607046218271
1.176077064091407
1.176090810168803
1.176105830248187
1.176122562976919
1.176150500003161
1.176174602489097
1.176208377427952
1.176248279558578
1.1762861191982
1.176337025812143
1.176386940723497
1.176441342639713
1.17650332885384
1.176562505310318
1.176624791616907
1.176696942781056
1.176761665788814
1.17676509397891
1.176764684352784
1.176764364501943
1.176762533014238
1.176757997925775
1.176755038230476
1.176745330574976
1.176733989360192
1.176723362967393
1.176702097903997
1.176680652952188
1.176657679188851
1.176621358313158
1.176587484106996
1.176548518356288
1.176496111052272
1.176449024831214
1.176393102722554
1.176329104238324
1.176269937115682
1.176205251933868
1.176130077242609
1.176064005312076
1.176060388809273
1.176060356473027
1.17606152810107
1.176062771194038
1.176066316429978
1.176072902766903
1.176078339227947
1.176090614156642
1.176105054065617
1.176118446651242
1.176145547659619
1.176167061861146
1.176197785297458
1.176236404550161
1.176270785423184
1.176320241025432
1.176367659806649
1.176418930631949
1.17648034182491
1.176536412082388
1.176600054912479
1.176661600008963
1.176744278343422
1.176760041564212
1.176760643235931
1.176760749945298
1.176757644519229
1.176756355730832
1.176752194673035
1.176742434893933
1.176738259582335
1.176721880230683
1.176705583953416
1.176690314417896
1.176658451315731
1.176635057067679
1.176600351056325
1.176556222911692
1.176519147062117
1.176465263244436
1.176411866079652
1.176357383138068
1.176292301697235
1.176230240365915
1.176167862177752
1.176081236931896
1.176065073234343
1.176064775934066
1.176065195697743
1.176066514408201
1.176070148035155
1.176072715286534
1.176081701239637
1.176089969387003
1.176100971328477
1.176120550088524
1.176136297229096
1.176163146187517
1.176191020860861
1.176221524874718
1.176263228775311
1.17630207489904
1.176349442968632
1.17640205703647
1.176453826894328
1.17651341449175
1.176574406937985
1.176630725282299
1.176711216597032
1.176754725943674
1.176756469642297
1.17675657272099
1.176754303476126
1.176753962686811
1.176749444806269
1.176741713437627
1.176737355312257
1.176722314019153
1.176708883418441
1.176692846443939
1.176665779360222
1.176643035584834
1.176608920268704
1.176571665792598
1.176532758326511
1.176482367288277
1.176434074228823
1.176377127858371
1.17631694699246
1.176256394292967
1.176194709844853
1.17611172589925
1.176070547216953
1.176068625514225
1.176068960164695
1.176071149259874
1.176071099037894
1.176076893777869
1.176083834789436
1.176087927189795
1.176104280576421
1.176115812901813
1.176132583214224
1.176159371846263
1.176181054615513
1.176214792397309
1.176250700099123
1.176288049352065
1.176335700095946
1.176382338152002
1.176435154738648
1.176492225183337
1.176549190716714
1.176609868125208
1.176674126972173
1.1767447542002
1.176752226757424
1.176752078149242
1.176750833278457
1.17675043288649
1.176745609912105
1.176740266193941
1.176735957416382
1.176720797847926
1.17671243474683
1.176696210670356
1.176668798774608
1.1766523791569
1.176617791576852
1.176581141575381
1.176548702624458
1.176497431783395
1.176450713930813
1.176399789888519
1.176337716928626
1.176281988885903
1.176219550718636
1.176152492505444
1.176080741882276
1.176074839792396
1.176074289513755
1.176075216231345
1.176077282976774
1.176078027339545
1.176085169477104
1.176090543325978
1.176095744810185
1.176115040648926
1.176127390375147
1.176148019944433
1.176178679352309
1.176203454521979
1.176240405305318
1.17628081329313
1.176320617296071
1.176369326402952
1.176417788051449
1.17647051096704
1.176527045030663
1.176583221609619
1.176638205018392
1.176714987178245
1.176740422235791
1.176743169288433
1.176742439118655
1.176743587779271
1.176740309483552
1.176738522794453
1.176737564987987
1.176727992418026
1.176718919961034
1.176706380532513
1.176686709565461
1.176664705610607
1.176635853697559
1.176603686463334
1.17656673424941
1.176523120507517
1.176476261973861
1.176423177414246
1.176365459558826
1.176306173639728
1.176241447828581
1.176177251343779
1.176088081497223
1.176058737180961
1.176037054806406
1.176031581908647
1.176024300125918
1.176020037416908
1.176017369805995
1.176016392357625
1.176019048523136
1.176024665355391
1.176038344616379
1.176048871175327
1.176070395187341
1.176099147217891
1.17612738845552
1.176168577067713
1.176207328915853
1.176252146399606
1.17630996955632
1.176364223298129
1.176426421355782
1.176494102886505
1.176565754373056
1.176628316626927
1.17670642728993
1.176734758179887
1.176766695643947
1.176780886815628
1.176790667039861
1.176801544105565
1.176810090161644
1.176813125081532
1.17681490882328
1.176809391076128
1.176798478558019
1.176781981227156
1.176755011287966
1.176726354225762
1.176684942555111
1.176636027888011
1.176590533957691
1.176528060369431
1.176468365044777
1.176408145276086
1.176328691444894
1.176270855476058
1.176198639502966
1.176126611494273
1.176089688580212
1.176069486838019
1.176049028867358
1.176042799378489
1.176039646035707
1.176038980400068
1.176040373793075
1.176046186132492
1.176054381691054
1.17606338576633
1.176081410553668
1.176103504493476
1.176128090388723
1.176163578600738
1.176204468898031
1.176246771937659
1.176294840296068
1.17635176706286
1.176411007576216
1.176469663823494
1.176534086575296
1.176604483006728
1.176659945351666
1.176721081079403
1.176753054544196
1.176779038409705
1.176793413073922
1.176803359118026
1.176810329818387
1.176813720776033
1.176812465543368
1.176808879365894
1.176798959295765
1.176781831675047
1.176763974716149
1.176739064095322
1.176701360029159
1.176659345249525
1.176609683893377
1.176554419554003
1.176493408382789
1.176430581841875
1.176366311035216
1.176298737170289
1.176229854693542
1.176172546717956
1.176108695939529
1.176083765211072
1.176060996810881
1.176046668075283
1.176039991522293
1.176038712607475
1.176041632328293
1.176049673587164
1.176055261642877
1.176066478186414
1.176084761940066
1.176102163515852
1.176125324527358
1.176158960947827
1.176193775111575
1.176234489888891
1.17628288316512
1.176333760994322
1.176388277877867
1.176452007619571
1.17651042522702
1.176571053541069
1.176632032524677
1.176700046574459
1.176734814997927
1.176771800224639
1.176790674544647
1.176803622841893
1.176814378456656
1.176819275351414
1.176817629746224
1.176809277633322
1.176799656558162
1.176789775056517
1.176766512582671
1.1767408922224
1.176713588283957
1.176672910795192
1.176629123492926
1.176577868333228
1.17651840466994
1.176455539149925
1.176389958170731
1.176326282983578
1.176261578034245
1.176197709770699
1.176136264789278
1.176097194622737
1.176070678134098
1.176054108239478
1.176044078501479
1.176037435185284
1.176043600891525
1.17604413242558
1.176055014164018
1.176069002202665
1.176078968026567
1.176102370069392
1.176126458401691
1.176151054384746
1.176187806686291
1.176227548154652
1.176268550621439
1.176318929816299
1.176373785906079
1.176431044951747
1.176492294290133
1.176550514178218
1.176609962019593
1.176666436882367
1.176725297107758
1.176759560964356
1.176784854872525
1.176802177926282
1.176814234844789
1.176823259664814
1.176823125915107
1.176818171813371
1.176808429416678
1.176797357856829
1.176778300769319
1.176750578837112
1.176723065014666
1.176692217361774
1.176645749321978
1.176597456839032
1.176548829978209
1.176485964504103
1.176423388245468
1.176357965034305
1.176291663543294
1.17622866580444
1.17617084307699
1.176111669952331
1.176084094393254
1.176061622323687
1.176048762464361
1.17604013371729
1.176041696135722
1.176044161922213
1.176050440774769
1.176062738303256
1.176075444070808
1.176092903681765
1.176118133740335
1.176145426375757
1.176174907592066
1.176213486314521
1.176255135251121
1.176299652900838
1.176350810531473
1.176407747287366
1.176465376865337
1.1765224989987
1.176581006418838
1.17663999918032
1.176696211019071
1.176739318543217
1.17676806451888
1.176791638451535
1.176806800663577
1.176818588832738
1.176823615623118
1.17682201264716
1.176811921840096
1.176805058932539
1.176788406441015
1.176757469580268
1.176735046865365
1.176701312715597
1.176658279923909
1.176621287593765
1.17656707296886
1.176509860448314
1.176456677400423
1.176392791639622
1.176326286666193
1.176266245411727
1.176206419308269
1.176144927720196
1.176102050102551
1.176076175242963
1.176062711405934
1.176047731205751
1.17604636261803
1.176049497091352
1.176053039464633
1.17606207474849
1.176078249102683
1.176092140823431
1.176112893547556
1.176139590210803
1.176166236566764
1.176203276747872
1.176243609424869
1.176285262253818
1.176335291715724
1.176388231375468
1.176446451214085
1.176503248592925
1.176559229076177
1.176617412804542
1.176669752175302
1.176725364605871
1.176753945171175
1.176779733126444
1.176796134567865
1.176811557295594
1.176817563679041
1.176818761248093
1.176818164375176
1.176810882495011
1.176791040084848
1.176774680448007
1.176744223479011
1.1767097611444
1.176676090589534
1.176629608000615
1.176580057489443
1.176530889913459
1.176472708082356
1.176409578825294
1.176350561958299
1.176287445221816
1.17622458156532
1.176167716243201
1.176111495947405
1.176080434333149
1.176059524551447
1.176042540750429
1.176037820154757
1.176041345407357
1.176047696123476
1.17605260234609
1.176067385535056
1.176085625165528
1.176103789781792
1.176130415396054
1.176155153386995
1.176187815366089
1.176227361658148
1.176263477293453
1.17631302011557
1.176365447528863
1.176416557220716
1.176475594044453
1.176534906649081
1.176589354078789
1.176646493286369
1.17669730613273
1.176742815534064
1.176766207742057
1.176779595535105
1.176799155131193
1.176807094146626
1.176809116318368
1.176810422247981
1.176809827448782
1.176799120103877
1.176780841468561
1.176754024555007
1.176724910657035
1.176689306176377
1.176645555698551
1.176600090001361
1.176546327340934
1.176489874527621
1.176437443954147
1.176372611631772
1.176312336115978
1.17625374860843
1.176187216732311
1.176137713226445
1.176084835157667
1.176061008817584
1.176041646060494
1.176031027759432
1.176027813390396
1.176034508450067
1.176041009724639
1.176054779704083
1.176071618911662
1.176088287514161
1.176112829116647
1.176139091773769
1.176169064903598
1.176203874838119
1.176242728164093
1.176286102034058
1.176332046205694
1.176387091841156
1.176441349321057
1.176494702588623
1.17655848990171
1.176611474734881
1.176662999291138
1.176717022759244
1.176749799510304
1.176768810687126
1.176781419497866
1.176792614170199
1.176793832905674
1.17678966100146
1.176791005188468
1.176786422193103
1.176772032073498
1.176759734006428
1.176736747851
1.176697250313347
1.176663972277522
1.176616917978013
1.176553247887425
1.176505132358404
1.1764440409499
1.176377706268867
1.17632691625625
1.176257683089483
1.17620151581198
1.176149910525853
1.17609685617695
1.176060248767411
1.176031202596863
1.176028329714446
1.176007099802723
1.176016036133642
1.176023215565725
1.176039830672782
1.176047130428816
1.17606838178521
1.176100499097599
1.17611443475874
1.17614693008875
1.176192063673161
1.176215440560845
1.176254269691071
1.176312226790284
1.176339546494925
1.176378454517294
1.176476110490419
)
;

boundaryField
{
    inlet
    {
        type            calculated;
        value           uniform 1.176271021779363;
    }
    outlet
    {
        type            calculated;
        value           uniform 1.176481695079407;
    }
    frontAndBack
    {
        type            empty;
    }
}


// ************************************************************************* //
