/*--------------------------------*- C++ -*----------------------------------*\
| =========                 |                                                 |
| \\      /  F ield         | OpenFOAM: The Open Source CFD Toolbox           |
|  \\    /   O peration     | Version:  v2012                                 |
|   \\  /    A nd           | Website:  www.openfoam.com                      |
|    \\/     M anipulation  |                                                 |
\*---------------------------------------------------------------------------*/
FoamFile
{
    version     2.0;
    format      ascii;
    class       volVectorField;
    location    "0.01";
    object      UMean;
}
// * * * * * * * * * * * * * * * * * * * * * * * * * * * * * * * * * * * * * //

dimensions      [0 1 -1 0 0 0 0];


internalField   nonuniform List<vector> 
1000
(
(-2.747107801354169e-05 0 0)
(1.463920423709323e-05 0 0)
(2.785870097762824e-05 0 0)
(8.236773544262337e-05 0 0)
(0.0001150861177728322 0 0)
(0.0001683309326861133 0 0)
(0.000228678541012348 0 0)
(0.0003254154920695168 0 0)
(0.0003668718820241254 0 0)
(0.0004667119675954737 0 0)
(0.0005630967660007348 0 0)
(0.0006274250184513989 0 0)
(0.0007135468873731902 0 0)
(0.0008375161752485695 0 0)
(0.0008774438793969631 0 0)
(0.0009404189757129726 0 0)
(0.001073583538499848 0 0)
(0.001112452213536545 0 0)
(0.001138156127401228 0 0)
(0.001209903227112778 0 0)
(0.00126578277812914 0 0)
(0.001275350730204527 0 0)
(0.001251905643541998 0 0)
(0.001302158113589015 0 0)
(0.001305871817494373 0 0)
(0.001253929567412294 0 0)
(0.001182462622153614 0 0)
(0.001207656515346362 0 0)
(0.001168279108289552 0 0)
(0.001017222654295356 0 0)
(0.0009890481726165961 0 0)
(0.0009692116718582888 0 0)
(0.0008139436889656166 0 0)
(0.0007002671312418624 0 0)
(0.0007174547002536843 0 0)
(0.0005882838825200972 0 0)
(0.0004493012921358979 0 0)
(0.0004353708616510833 0 0)
(0.0003713910794810966 0 0)
(0.0002367454170307927 0 0)
(0.0001918671450430405 0 0)
(0.0001650528895065777 0 0)
(7.791028032736922e-05 0 0)
(4.734640267855595e-05 0 0)
(2.026011511365017e-05 0 0)
(5.469704184792025e-06 0 0)
(2.996871300244651e-06 0 0)
(-5.773207960137128e-06 0 0)
(2.532485555889317e-05 0 0)
(6.209710503219899e-05 0 0)
(8.488773427713047e-05 0 0)
(0.0001447440427873125 0 0)
(0.0002185242042115648 0 0)
(0.0002565582667503815 0 0)
(0.0003591106923146741 0 0)
(0.0004578821035889712 0 0)
(0.0005076668501081938 0 0)
(0.0006007774199706768 0 0)
(0.0007108206942281626 0 0)
(0.0007561920610191817 0 0)
(0.0008428107418485016 0 0)
(0.0009466253657439079 0 0)
(0.0009902441145502199 0 0)
(0.001051714910942003 0 0)
(0.001153402139221452 0 0)
(0.001183282583987157 0 0)
(0.001202615578746948 0 0)
(0.001265401701781517 0 0)
(0.001297558101482003 0 0)
(0.001273719997308976 0 0)
(0.001272900358496583 0 0)
(0.001278560497617154 0 0)
(0.001243609207933962 0 0)
(0.001189128819450064 0 0)
(0.00115419780521575 0 0)
(0.001099594173747913 0 0)
(0.001018755888213691 0 0)
(0.0009419357198034928 0 0)
(0.000866632012117646 0 0)
(0.0007768810211587281 0 0)
(0.0006872726980162824 0 0)
(0.0006224721430839113 0 0)
(0.0005363839148361135 0 0)
(0.0004448450816794192 0 0)
(0.0003806827112452071 0 0)
(0.0003125456055354392 0 0)
(0.0002262156198306861 0 0)
(0.000174057510373815 0 0)
(0.0001231415421733463 0 0)
(6.926612966504041e-05 0 0)
(4.35101552649715e-05 0 0)
(5.365346744750381e-06 0 0)
(-1.117840254359971e-06 0 0)
(7.461169380339143e-06 0 0)
(1.587297857704013e-05 0 0)
(3.006539863660771e-05 0 0)
(7.991432165408493e-05 0 0)
(0.0001280726599073685 0 0)
(0.0001835182350616683 0 0)
(0.0002521182592924017 0 0)
(0.0003280755471343647 0 0)
(0.0004188858832440814 0 0)
(0.0005045765727675909 0 0)
(0.0005714150293088965 0 0)
(0.0006535115749939167 0 0)
(0.0007540012101019119 0 0)
(0.0008159536285554051 0 0)
(0.0008821700811902269 0 0)
(0.000979899665066486 0 0)
(0.001036702134351808 0 0)
(0.00108787855181994 0 0)
(0.001162913653124683 0 0)
(0.001208308348355019 0 0)
(0.001217974036455635 0 0)
(0.001273438395125659 0 0)
(0.001295274100894098 0 0)
(0.001263261943536336 0 0)
(0.001278608358764414 0 0)
(0.001273126514298685 0 0)
(0.001199700739723098 0 0)
(0.001163577952253204 0 0)
(0.00114247397440109 0 0)
(0.00103397258454325 0 0)
(0.0009553052597350934 0 0)
(0.0009134836315203766 0 0)
(0.0007968956698138838 0 0)
(0.0007051047162835624 0 0)
(0.0006666068808655716 0 0)
(0.0005674201857794911 0 0)
(0.0004600691610566861 0 0)
(0.00043184224682529 0 0)
(0.0003449751059397628 0 0)
(0.0002423980830042266 0 0)
(0.0002156878829288954 0 0)
(0.000166382104021101 0 0)
(7.376716225438181e-05 0 0)
(5.894310380317854e-05 0 0)
(5.537148996412202e-05 0 0)
(-1.548062984180585e-05 0 0)
(-1.173076728071698e-06 0 0)
(3.389203360853735e-05 0 0)
(1.743080487141327e-05 0 0)
(4.163526278264337e-05 0 0)
(0.0001296345374336953 0 0)
(0.0001564259634268505 0 0)
(0.0002108258761066839 0 0)
(0.0003311335845869517 0 0)
(0.0003785514792926724 0 0)
(0.0004659306218862645 0 0)
(0.000568000141908022 0 0)
(0.0006232701189521066 0 0)
(0.0006966791285688554 0 0)
(0.0008151733981761494 0 0)
(0.0008564389539174966 0 0)
(0.0009132505340314467 0 0)
(0.001037641406909554 0 0)
(0.001065142592349391 0 0)
(0.001105344580414718 0 0)
(0.001196256136843123 0 0)
(0.001228030627274363 0 0)
(0.001223035462401835 0 0)
(0.001285691126966448 0 0)
(0.001300026231485186 0 0)
(0.00124615839612486 0 0)
(0.001271536354725309 0 0)
(0.001255535583650234 0 0)
(0.001169828176821313 0 0)
(0.001131129672997176 0 0)
(0.001105325729356474 0 0)
(0.0009759660839505278 0 0)
(0.0009019925422350269 0 0)
(0.0008596851435849163 0 0)
(0.0007413728039749796 0 0)
(0.0006651707651939809 0 0)
(0.0006145663300359117 0 0)
(0.0005144930382494224 0 0)
(0.0004229672757546305 0 0)
(0.0004011884430514699 0 0)
(0.0002945886797475466 0 0)
(0.0002171049511431077 0 0)
(0.000200813262800436 0 0)
(0.0001253896830716246 0 0)
(6.340412006718801e-05 0 0)
(6.309362066207129e-05 0 0)
(2.970831120396538e-05 0 0)
(-1.398912356347196e-05 0 0)
(2.99156399917221e-05 0 0)
(2.836864897153199e-05 0 0)
(2.559595835260866e-05 0 0)
(0.0001018490562011996 0 0)
(0.0001526848620716578 0 0)
(0.0001876269038102138 0 0)
(0.0002869916099390894 0 0)
(0.0003806394380493997 0 0)
(0.0004360525948110857 0 0)
(0.0005203329755041037 0 0)
(0.0006149899667946115 0 0)
(0.0006767339296401133 0 0)
(0.0007498896359286908 0 0)
(0.0008482553569716024 0 0)
(0.0009005728496202978 0 0)
(0.0009678259126575921 0 0)
(0.001047274451696101 0 0)
(0.00109906296100655 0 0)
(0.001151414555147838 0 0)
(0.001191881781833085 0 0)
(0.001233144111075111 0 0)
(0.001259666768642014 0 0)
(0.001274980100905309 0 0)
(0.001265932811686676 0 0)
(0.001275089110724698 0 0)
(0.001244592124731933 0 0)
(0.001201888424658986 0 0)
(0.001159916258159636 0 0)
(0.001107372844036658 0 0)
(0.001006585013276686 0 0)
(0.0009428677443060131 0 0)
(0.0008671889196104137 0 0)
(0.0007728318707775646 0 0)
(0.000707019177838024 0 0)
(0.0006385176783917559 0 0)
(0.00053989135255043 0 0)
(0.0004721662262533961 0 0)
(0.0004178642151085112 0 0)
(0.0003297086193617471 0 0)
(0.0002596614132688941 0 0)
(0.0002184118119246846 0 0)
(0.0001542932612884306 0 0)
(0.0001016884305634427 0 0)
(7.497491010379367e-05 0 0)
(4.198810557409306e-05 0 0)
(1.200621318453263e-05 0 0)
(2.882384759275579e-05 0 0)
(2.456480446618591e-05 0 0)
(3.528246022165079e-05 0 0)
(7.893702678127359e-05 0 0)
(0.0001298814286848171 0 0)
(0.0001795606727047162 0 0)
(0.0002628525768185957 0 0)
(0.0003473614213589778 0 0)
(0.0004192154734641845 0 0)
(0.0004987932056779622 0 0)
(0.00057904665549359 0 0)
(0.0006566380508600678 0 0)
(0.0007286065214826076 0 0)
(0.0008080131000634515 0 0)
(0.0008798862970599024 0 0)
(0.0009451850309685334 0 0)
(0.001014326994873682 0 0)
(0.001073232341092649 0 0)
(0.001128193448227177 0 0)
(0.001170627902220048 0 0)
(0.001218389268558048 0 0)
(0.001241486116528773 0 0)
(0.001262688008031823 0 0)
(0.001268173884582905 0 0)
(0.001271132296078525 0 0)
(0.001248689875760689 0 0)
(0.001218381496614734 0 0)
(0.001178566745579584 0 0)
(0.001119199909858061 0 0)
(0.001041900875166591 0 0)
(0.0009677529560796933 0 0)
(0.0008911888998888456 0 0)
(0.000806275496974683 0 0)
(0.0007292525447800106 0 0)
(0.0006676050906855174 0 0)
(0.0005749936362908057 0 0)
(0.0005017770567996248 0 0)
(0.0004387206815818591 0 0)
(0.0003720525493955033 0 0)
(0.0002849330791993497 0 0)
(0.0002401870591479597 0 0)
(0.0001891298301503789 0 0)
(0.000127086020676059 0 0)
(8.808597663947867e-05 0 0)
(6.504048322346459e-05 0 0)
(3.754976424387103e-05 0 0)
(1.785095380647832e-05 0 0)
(3.383329081240998e-05 0 0)
(4.38978000449342e-05 0 0)
(6.554779913037709e-05 0 0)
(0.0001140547964325638 0 0)
(0.0001667559635021101 0 0)
(0.000245489619476446 0 0)
(0.0003144620512310546 0 0)
(0.0004049482732243571 0 0)
(0.0004672352274414385 0 0)
(0.0005606198602938216 0 0)
(0.000621727898837163 0 0)
(0.000705153982360125 0 0)
(0.0007800926839871709 0 0)
(0.0008482751202915992 0 0)
(0.0009144602110955083 0 0)
(0.0009853502134763545 0 0)
(0.001051366078515782 0 0)
(0.001093163180472076 0 0)
(0.001159336915954972 0 0)
(0.001186174722059004 0 0)
(0.001227550902031401 0 0)
(0.001249023752545111 0 0)
(0.00125944880803338 0 0)
(0.001262896273382579 0 0)
(0.001251119413348028 0 0)
(0.001230991384226908 0 0)
(0.001179773333466594 0 0)
(0.001145566196375423 0 0)
(0.001066834348871187 0 0)
(0.0009916414639588923 0 0)
(0.0009129484616673077 0 0)
(0.0008390963033265506 0 0)
(0.0007608110232340781 0 0)
(0.000683346938742015 0 0)
(0.0006099658094782974 0 0)
(0.0005329203052976024 0 0)
(0.0004673355386899565 0 0)
(0.0003878267454999797 0 0)
(0.0003301136208096509 0 0)
(0.0002651883722078003 0 0)
(0.0002039416566170768 0 0)
(0.0001539478174839433 0 0)
(0.0001189101842003621 0 0)
(7.515462784873279e-05 0 0)
(4.542416608330781e-05 0 0)
(4.204718779697144e-05 0 0)
(3.344609948002978e-05 0 0)
(4.19831015403851e-05 0 0)
(6.406154326424789e-05 0 0)
(0.0001067964526003708 0 0)
(0.0001415531027745529 0 0)
(0.000221380389288532 0 0)
(0.0002990672265590995 0 0)
(0.0003686853743272495 0 0)
(0.0004502401264293765 0 0)
(0.0005268289738327781 0 0)
(0.0005978576001982481 0 0)
(0.000679617786534404 0 0)
(0.0007548088368222304 0 0)
(0.0008197682166709189 0 0)
(0.0008887393996122375 0 0)
(0.0009646883230433625 0 0)
(0.001020934887707438 0 0)
(0.001074183452705322 0 0)
(0.001128093801398981 0 0)
(0.001176056571972579 0 0)
(0.001204251215714492 0 0)
(0.00123955616722195 0 0)
(0.001248947968694489 0 0)
(0.001255368246318595 0 0)
(0.0012556754793861 0 0)
(0.001237603571376008 0 0)
(0.001192609854911861 0 0)
(0.001152099588847281 0 0)
(0.001101181529838258 0 0)
(0.001013211058503829 0 0)
(0.0009423305412214644 0 0)
(0.0008680700682604143 0 0)
(0.0007882850492104099 0 0)
(0.0007103494803667549 0 0)
(0.0006451687086460281 0 0)
(0.0005665918596619768 0 0)
(0.0004906116797275373 0 0)
(0.0004266906351290946 0 0)
(0.0003568241746546119 0 0)
(0.000296452610962924 0 0)
(0.000235177164119209 0 0)
(0.0001844453360063247 0 0)
(0.0001388911977010115 0 0)
(0.0001001059684143734 0 0)
(7.054660002520556e-05 0 0)
(5.30708565119905e-05 0 0)
(4.940249682330693e-05 0 0)
(3.85295233657584e-05 0 0)
(6.818573525890672e-05 0 0)
(9.786645540452004e-05 0 0)
(0.0001409051708145249 0 0)
(0.0001892142849959201 0 0)
(0.0002851535469690473 0 0)
(0.0003497503528807072 0 0)
(0.0004264802860817838 0 0)
(0.0005016400123074656 0 0)
(0.0005751747460370702 0 0)
(0.0006543222665372286 0 0)
(0.00072488808775744 0 0)
(0.0007968716735678092 0 0)
(0.0008593736606382398 0 0)
(0.0009401655767025294 0 0)
(0.0009927746728374022 0 0)
(0.001047366474222438 0 0)
(0.001108657978473036 0 0)
(0.001156296839157131 0 0)
(0.001183695359740463 0 0)
(0.001218866177158064 0 0)
(0.001246834806908695 0 0)
(0.001242085032716913 0 0)
(0.001251012603048969 0 0)
(0.001234614383599461 0 0)
(0.001207129855301848 0 0)
(0.001161428604840858 0 0)
(0.001120357979191801 0 0)
(0.001037558249302817 0 0)
(0.0009633981101225872 0 0)
(0.0008982296415527991 0 0)
(0.0008131968793120494 0 0)
(0.000739821014142516 0 0)
(0.0006720973458017792 0 0)
(0.0005942780727906056 0 0)
(0.000518474444529214 0 0)
(0.0004583251622511978 0 0)
(0.0003894707069027853 0 0)
(0.0003146706584397478 0 0)
(0.0002675562003255968 0 0)
(0.0002149031520485943 0 0)
(0.0001582466988217428 0 0)
(0.0001184960297628989 0 0)
(9.610957808622809e-05 0 0)
(6.59170297020689e-05 0 0)
(5.194921348666749e-05 0 0)
(5.835306653679675e-05 0 0)
(6.413116535008185e-05 0 0)
(9.347468265492424e-05 0 0)
(0.0001355395672702487 0 0)
(0.0001764811462659261 0 0)
(0.0002495917582266096 0 0)
(0.0003387169119309475 0 0)
(0.0004031088023014928 0 0)
(0.0004712552498921791 0 0)
(0.000560589627319 0 0)
(0.000624203014311631 0 0)
(0.0006944330029891761 0 0)
(0.0007733792375803742 0 0)
(0.0008419952943665608 0 0)
(0.0008975823338639448 0 0)
(0.0009741860821061423 0 0)
(0.001032617470028713 0 0)
(0.001073566893271435 0 0)
(0.001129115383957525 0 0)
(0.001176801781367613 0 0)
(0.001202746777352693 0 0)
(0.001220453007166946 0 0)
(0.001246545245027201 0 0)
(0.001243955925200133 0 0)
(0.001230089421662824 0 0)
(0.001214222673573055 0 0)
(0.001178120017479703 0 0)
(0.001129549100135615 0 0)
(0.001065866763222775 0 0)
(0.0009916784076086616 0 0)
(0.0009178781553675733 0 0)
(0.0008430070529503324 0 0)
(0.0007652304469078016 0 0)
(0.0006983374194751732 0 0)
(0.0006238430351788413 0 0)
(0.0005501458739127873 0 0)
(0.000479892249940339 0 0)
(0.0004218336052046614 0 0)
(0.0003466891061975185 0 0)
(0.0002885759060135055 0 0)
(0.0002415980758716595 0 0)
(0.0001828992342482614 0 0)
(0.0001429188813974015 0 0)
(0.0001095987805744647 0 0)
(8.380666093775738e-05 0 0)
(6.123833643471957e-05 0 0)
(6.757372627942653e-05 0 0)
(6.651977121288657e-05 0 0)
(8.571823175258107e-05 0 0)
(0.0001280468131228911 0 0)
(0.0001678213752173983 0 0)
(0.0002251647250317315 0 0)
(0.000311039477295968 0 0)
(0.0003866416508611448 0 0)
(0.0004430635433107668 0 0)
(0.0005329099071447599 0 0)
(0.0006010253088120905 0 0)
(0.0006695271000029986 0 0)
(0.0007445395115183766 0 0)
(0.0008222298869420763 0 0)
(0.0008667070975094988 0 0)
(0.0009435735535954796 0 0)
(0.001013741813960842 0 0)
(0.001048947075461125 0 0)
(0.001109353222862313 0 0)
(0.00115607467625825 0 0)
(0.001183531981581635 0 0)
(0.0012062207879677 0 0)
(0.001240770996717384 0 0)
(0.001229610233895176 0 0)
(0.001224499807134698 0 0)
(0.001225286346215895 0 0)
(0.001185468161276167 0 0)
(0.001134729510291574 0 0)
(0.001092517633940102 0 0)
(0.001023686531440286 0 0)
(0.0009342238528791925 0 0)
(0.0008666113504857518 0 0)
(0.0008059448803154589 0 0)
(0.0007170057724944037 0 0)
(0.0006489939370706242 0 0)
(0.0005886881797214449 0 0)
(0.000506994567960363 0 0)
(0.0004385592137676354 0 0)
(0.0003895808388574681 0 0)
(0.0003157094502983902 0 0)
(0.0002562479952923257 0 0)
(0.0002169184270561332 0 0)
(0.0001688360891036388 0 0)
(0.0001226844030145051 0 0)
(0.0001032344708182302 0 0)
(8.434094834154373e-05 0 0)
(6.40457793860809e-05 0 0)
(7.839188634756539e-05 0 0)
(9.528558925323119e-05 0 0)
(0.0001109800870084371 0 0)
(0.0001566957188028925 0 0)
(0.0002198801723518765 0 0)
(0.0002855540386151905 0 0)
(0.0003561179207581435 0 0)
(0.0004372115786650408 0 0)
(0.0005003059187973026 0 0)
(0.0005816939331060857 0 0)
(0.0006514628503921099 0 0)
(0.0007156346126247301 0 0)
(0.0007856977440449427 0 0)
(0.0008612590414359578 0 0)
(0.0009197591362901309 0 0)
(0.0009710247872363487 0 0)
(0.001043205035871438 0 0)
(0.001087194724612203 0 0)
(0.001129768099545903 0 0)
(0.00116367797953391 0 0)
(0.001207145327520025 0 0)
(0.001214590162048015 0 0)
(0.001229679299657711 0 0)
(0.001229288629307248 0 0)
(0.001211573731643677 0 0)
(0.001194444398025618 0 0)
(0.00115580851249882 0 0)
(0.001109645379741213 0 0)
(0.001029383272909921 0 0)
(0.0009699093408708879 0 0)
(0.000897388941715691 0 0)
(0.0008169258365749332 0 0)
(0.0007437108243465464 0 0)
(0.0006826248838829741 0 0)
(0.0006074620013444185 0 0)
(0.0005355838433251864 0 0)
(0.0004731974313885802 0 0)
(0.0004022482012835073 0 0)
(0.0003492659895806137 0 0)
(0.0002868366355918202 0 0)
(0.0002343702419243533 0 0)
(0.0001869973734643677 0 0)
(0.0001513943915844686 0 0)
(0.0001147971252213119 0 0)
(9.776772791460389e-05 0 0)
(7.991222954071504e-05 0 0)
(7.864511027222324e-05 0 0)
(9.524648751018201e-05 0 0)
(0.0001135479147860896 0 0)
(0.0001502246357731368 0 0)
(0.0001940436186477348 0 0)
(0.0002688980919608306 0 0)
(0.0003351439355356025 0 0)
(0.0004072282412398402 0 0)
(0.0004775753988495876 0 0)
(0.0005552268768800354 0 0)
(0.0006217100514190269 0 0)
(0.000691769086630527 0 0)
(0.000762885765303386 0 0)
(0.0008326256483863057 0 0)
(0.0008940485584695021 0 0)
(0.0009536558531336125 0 0)
(0.001015920027113451 0 0)
(0.001061988182284789 0 0)
(0.00111266959110416 0 0)
(0.001149849142515004 0 0)
(0.001179461176229539 0 0)
(0.00120229881155285 0 0)
(0.001222651453047096 0 0)
(0.001217678093698427 0 0)
(0.001208568580679033 0 0)
(0.001200834734992535 0 0)
(0.001162926485549307 0 0)
(0.001113526434862037 0 0)
(0.001069626683485738 0 0)
(0.0009949651143799547 0 0)
(0.0009152742907195075 0 0)
(0.0008549880019570544 0 0)
(0.0007865962210255897 0 0)
(0.0006999902481452069 0 0)
(0.0006427577233743026 0 0)
(0.0005774844690908459 0 0)
(0.0004915119809483777 0 0)
(0.0004299727571734589 0 0)
(0.00037712128808135 0 0)
(0.0003096216617598337 0 0)
(0.0002447244485513163 0 0)
(0.0002123124175873082 0 0)
(0.0001588913759060165 0 0)
(0.0001206263779496071 0 0)
(9.812539814553688e-05 0 0)
(8.29936487187147e-05 0 0)
(7.165444893050964e-05 0 0)
(8.071902606188286e-05 0 0)
(0.0001009465061352451 0 0)
(0.0001301264404456857 0 0)
(0.0001815803312695273 0 0)
(0.0002419642721261327 0 0)
(0.0003213159176610654 0 0)
(0.0003989313157749343 0 0)
(0.0004944529981344882 0 0)
(0.000568382071195973 0 0)
(0.0006522630777335882 0 0)
(0.0007548721773546512 0 0)
(0.0008272275455516378 0 0)
(0.0009167881482411501 0 0)
(0.001004293331424673 0 0)
(0.001086771215773945 0 0)
(0.001152149601929357 0 0)
(0.001247122850237597 0 0)
(0.00129851281076796 0 0)
(0.001366130802061683 0 0)
(0.001425331527463519 0 0)
(0.001469697187838112 0 0)
(0.001496046259671417 0 0)
(0.001530447765766195 0 0)
(0.001545963619791146 0 0)
(0.001530574708097051 0 0)
(0.00152240896375231 0 0)
(0.001497240351522809 0 0)
(0.001441007802356376 0 0)
(0.001378428113696876 0 0)
(0.001311890385509151 0 0)
(0.001226108456620284 0 0)
(0.001143523472391713 0 0)
(0.001062202250381564 0 0)
(0.0009650721920598165 0 0)
(0.0008763859223916231 0 0)
(0.0007979602052374838 0 0)
(0.000699705285857144 0 0)
(0.0006125715674655536 0 0)
(0.0005297965256347561 0 0)
(0.0004517273596700612 0 0)
(0.0003793324360518142 0 0)
(0.0003057726331437415 0 0)
(0.0002478311122402055 0 0)
(0.0002035810696751634 0 0)
(0.0001586494278717011 0 0)
(0.0001334085190213972 0 0)
(0.0001252480836021695 0 0)
(0.0001161802689391221 0 0)
(0.000135738895820635 0 0)
(0.0001679985154746635 0 0)
(0.00020845014644479 0 0)
(0.0002640793013797885 0 0)
(0.0003460466023524272 0 0)
(0.0004167691944190086 0 0)
(0.0004931530934439814 0 0)
(0.0005829955151811338 0 0)
(0.0006693875331692667 0 0)
(0.0007380569874076965 0 0)
(0.000833019027756914 0 0)
(0.0009160504049460714 0 0)
(0.0009794539015173897 0 0)
(0.001071130182767953 0 0)
(0.001134081597048599 0 0)
(0.001204948949126529 0 0)
(0.001262823378099378 0 0)
(0.001329538487811825 0 0)
(0.001364303072640666 0 0)
(0.001404490892559904 0 0)
(0.001441957295606871 0 0)
(0.001443933156696214 0 0)
(0.001450749386440533 0 0)
(0.001450125544706305 0 0)
(0.001406170808562251 0 0)
(0.001370860659105885 0 0)
(0.001342498481119244 0 0)
(0.001238663696899611 0 0)
(0.001171579986766258 0 0)
(0.001116068761527671 0 0)
(0.0009959691660646661 0 0)
(0.0009153148408047665 0 0)
(0.0008395706737685608 0 0)
(0.0007362932990222794 0 0)
(0.0006438989354669738 0 0)
(0.000569937795339546 0 0)
(0.0004702877741796927 0 0)
(0.0003970333762316059 0 0)
(0.0003244217184387147 0 0)
(0.0002539325414374387 0 0)
(0.0001816946452412025 0 0)
(0.0001376327874164466 0 0)
(0.0001026088413156282 0 0)
(5.336930073703771e-05 0 0)
(3.706903010107135e-05 0 0)
(4.915684444220414e-05 0 0)
(3.89932106618533e-05 0 0)
(6.450292966705346e-05 0 0)
(0.0001089463120342911 0 0)
(0.0001559646522188253 0 0)
(0.000214182422999506 0 0)
(0.0002959734418862656 0 0)
(0.0003733230243580777 0 0)
(0.0004481478917218558 0 0)
(0.0005398589454087701 0 0)
(0.0006225258280699053 0 0)
(0.0006990160048290455 0 0)
(0.0007794972423955694 0 0)
(0.0008642758451952913 0 0)
(0.0009386201057879673 0 0)
(0.001001919098749755 0 0)
(0.0010735686440265 0 0)
(0.001153786093423434 0 0)
(0.001184013597878957 0 0)
(0.001241209071427348 0 0)
(0.001292337468949623 0 0)
(0.00131058269858669 0 0)
(0.001322402270863219 0 0)
(0.001349982624492598 0 0)
(0.00133759348658415 0 0)
(0.001300786296104518 0 0)
(0.001289419600421236 0 0)
(0.001234311489047769 0 0)
(0.00116207044850402 0 0)
(0.001103671899606736 0 0)
(0.001025554064420274 0 0)
(0.0009238991950541444 0 0)
(0.0008472633674397373 0 0)
(0.0007568623514476155 0 0)
(0.0006588417076086019 0 0)
(0.0005709236802537876 0 0)
(0.00048148376844052 0 0)
(0.0003998368467857971 0 0)
(0.0003057647599075994 0 0)
(0.0002444086328278708 0 0)
(0.0001660165258850645 0 0)
(0.0001001022701418321 0 0)
(5.030170351836072e-05 0 0)
(-2.486917505393737e-06 0 0)
(-3.237305721683729e-05 0 0)
(-5.741823675828485e-05 0 0)
(-7.627481290731172e-05 0 0)
(-6.032504074961457e-05 0 0)
(-5.323129933797314e-05 0 0)
(-1.853563251662664e-05 0 0)
(2.391861206628602e-05 0 0)
(8.573315782641348e-05 0 0)
(0.0001449507456759588 0 0)
(0.0002307463666431328 0 0)
(0.0003064596651403546 0 0)
(0.0003865616949346675 0 0)
(0.0004704248108386384 0 0)
(0.0005640998972565992 0 0)
(0.0006322720509086563 0 0)
(0.0007066694400352378 0 0)
(0.0007990798986977822 0 0)
(0.0008590999472139468 0 0)
(0.0009353350628427359 0 0)
(0.0009934800971525696 0 0)
(0.001048763113321464 0 0)
(0.001110808017773411 0 0)
(0.001130523831001854 0 0)
(0.001175093122022599 0 0)
(0.001208990510735582 0 0)
(0.00119483186127826 0 0)
(0.001201108141347811 0 0)
(0.001204151746194282 0 0)
(0.001149849930734653 0 0)
(0.001116600631578831 0 0)
(0.001069646005794016 0 0)
(0.0009919274280472097 0 0)
(0.0009171849587278097 0 0)
(0.000837434458352007 0 0)
(0.0007440317720825142 0 0)
(0.0006551367433316441 0 0)
(0.0005638380753161628 0 0)
(0.0004754847350157204 0 0)
(0.0003806467593272566 0 0)
(0.0002772892708120646 0 0)
(0.000220119812322139 0 0)
(0.0001202435112473036 0 0)
(4.63457943919248e-05 0 0)
(-3.050729489019275e-06 0 0)
(-7.178166768485366e-05 0 0)
(-0.0001273843376178748 0 0)
(-0.0001578253561370229 0 0)
(-0.0001880552726935915 0 0)
(-0.0002107144317561805 0 0)
(-0.0002105941541757019 0 0)
(-0.0001959864288850768 0 0)
(-0.0001843334430269954 0 0)
(-0.0001309453583221329 0 0)
(-8.405205257243474e-05 0 0)
(-3.38712303174096e-05 0 0)
(4.858768449974966e-05 0 0)
(0.0001269587421031089 0 0)
(0.0001992486154008208 0 0)
(0.0002972155273892263 0 0)
(0.0003685145850352596 0 0)
(0.0004493733789132654 0 0)
(0.0005427121872959619 0 0)
(0.0006093778236373148 0 0)
(0.0006792483563351813 0 0)
(0.0007598023062847412 0 0)
(0.0008253103079306407 0 0)
(0.0008732763322276361 0 0)
(0.000941488850994645 0 0)
(0.0009741866451416755 0 0)
(0.001005563612549386 0 0)
(0.001043613350129601 0 0)
(0.00104159102993669 0 0)
(0.001053783897216381 0 0)
(0.001040923822066508 0 0)
(0.001025316873740601 0 0)
(0.0009792739972839532 0 0)
(0.0009450833446062889 0 0)
(0.0008682889642881552 0 0)
(0.0008064044010533823 0 0)
(0.0007258329507857876 0 0)
(0.0006350469946530384 0 0)
(0.0005513253663710967 0 0)
(0.0004601864489189074 0 0)
(0.0003606750086718206 0 0)
(0.0002730205720243402 0 0)
(0.000186220710942672 0 0)
(9.195949918525831e-05 0 0)
(1.836840772309624e-06 0 0)
(-5.574443128141618e-05 0 0)
(-0.0001285429756034519 0 0)
(-0.0001977182913213331 0 0)
(-0.0002429338609289482 0 0)
(-0.0002848453689538049 0 0)
(-0.0003257027561656422 0 0)
(-0.0003471332380332607 0 0)
(-0.0003518930319961924 0 0)
(-0.0003453813199842796 0 0)
(-0.0003413972926411042 0 0)
(-0.0003090964456741167 0 0)
(-0.0002500413253295816 0 0)
(-0.0002123621007063133 0 0)
(-0.0001471178192994621 0 0)
(-5.701152540929371e-05 0 0)
(7.609840330622986e-06 0 0)
(9.085518195738362e-05 0 0)
(0.0001807455258941773 0 0)
(0.0002567650680966776 0 0)
(0.0003320949943656622 0 0)
(0.0004125529338348009 0 0)
(0.0005001800804596803 0 0)
(0.0005410256587713991 0 0)
(0.0006368779882341179 0 0)
(0.0006821230568072758 0 0)
(0.0007477229912355825 0 0)
(0.0007794427283036357 0 0)
(0.0008330295276789721 0 0)
(0.0008527065125531633 0 0)
(0.0008613471497020843 0 0)
(0.0008751796651436702 0 0)
(0.0008776245709967536 0 0)
(0.0008381180354438752 0 0)
(0.0008259095792640737 0 0)
(0.000784147364551581 0 0)
(0.0007148024227976862 0 0)
(0.0006571895617658238 0 0)
(0.0005862861429485501 0 0)
(0.0004872805045250527 0 0)
(0.0004135821568396968 0 0)
(0.0003317635122504089 0 0)
(0.0002255829283585974 0 0)
(0.0001275496623387005 0 0)
(5.749052090196453e-05 0 0)
(-4.426984621520654e-05 0 0)
(-0.000147646149383382 0 0)
(-0.000193211153267056 0 0)
(-0.0002820601608922151 0 0)
(-0.0003562809729379669 0 0)
(-0.0003872212003860725 0 0)
(-0.0004397437118918099 0 0)
(-0.0004846816342028463 0 0)
(-0.0005047031960295912 0 0)
(-0.0005118387958550054 0 0)
(-0.0005269891450969708 0 0)
(-0.0005045039601365689 0 0)
(-0.0004658537423668955 0 0)
(-0.0004516423153056133 0 0)
(-0.0003890653823230956 0 0)
(-0.0003155665075142144 0 0)
(-0.0002636918813519774 0 0)
(-0.0001744139890739696 0 0)
(-9.164101730042891e-05 0 0)
(-1.192891639768291e-05 0 0)
(7.647941686251075e-05 0 0)
(0.0001482593935469811 0 0)
(0.0002356654424638775 0 0)
(0.0003074706265428968 0 0)
(0.0003800855914255261 0 0)
(0.0004495933329183697 0 0)
(0.0005135788888188138 0 0)
(0.0005700993744234457 0 0)
(0.0006141669358549472 0 0)
(0.0006716021841333323 0 0)
(0.0006935729548681607 0 0)
(0.000720668474469576 0 0)
(0.0007101836031253485 0 0)
(0.0007312816640532931 0 0)
(0.0007123712274086611 0 0)
(0.0006757005952027841 0 0)
(0.0006563989729078031 0 0)
(0.0006035243271526837 0 0)
(0.000530119332341666 0 0)
(0.0004746109200527164 0 0)
(0.0003898020877578712 0 0)
(0.0003044234138586006 0 0)
(0.000221377177910161 0 0)
(0.0001440784559915491 0 0)
(2.905537432018742e-05 0 0)
(-5.065308409106719e-05 0 0)
(-0.0001325018364037352 0 0)
(-0.0002383761542461379 0 0)
(-0.0003184041654490296 0 0)
(-0.000367712271418051 0 0)
(-0.0004577572093611185 0 0)
(-0.0005250118551124864 0 0)
(-0.0005408378567882993 0 0)
(-0.0005836975759789873 0 0)
(-0.0006471042359274406 0 0)
(-0.0006334302622853988 0 0)
(-0.0006352732666738799 0 0)
(-0.0006489781351624506 0 0)
(-0.000611921323035855 0 0)
(-0.0005737585183111712 0 0)
(-0.0005490779861554914 0 0)
(-0.0004759009799834711 0 0)
(-0.0003988381592627514 0 0)
(-0.0003395104601341154 0 0)
(-0.0002524200536985046 0 0)
(-0.0001526661660322737 0 0)
(-9.138060597886239e-05 0 0)
(1.059103520530028e-05 0 0)
(9.262948040502972e-05 0 0)
(0.0001508040096760936 0 0)
(0.0002338423618909789 0 0)
(0.0003320325219655519 0 0)
(0.0003616707491844775 0 0)
(0.000444408451361517 0 0)
(0.000500924297688426 0 0)
(0.0005289239061677133 0 0)
(0.0005925566171965049 0 0)
(0.0006075610900780631 0 0)
(0.0006238990558058154 0 0)
(0.0006235144561534684 0 0)
(0.0006240280772838911 0 0)
(0.0006021378162778782 0 0)
(0.0005779277209731502 0 0)
(0.0005294265410233359 0 0)
(0.0004820320645386135 0 0)
(0.0004056581630623097 0 0)
(0.0003410227506532805 0 0)
(0.0002698968934056051 0 0)
(0.0001824853555529602 0 0)
(8.883739743615812e-05 0 0)
(1.14288373568351e-05 0 0)
(-6.193943357805472e-05 0 0)
(-0.0001832941155173297 0 0)
(-0.0002468431821311552 0 0)
(-0.000345802670874315 0 0)
(-0.0004044740425022092 0 0)
(-0.0004801128798334396 0 0)
(-0.0005592950364868855 0 0)
(-0.0005900294268005906 0 0)
(-0.0006257673224857288 0 0)
(-0.0006799157878489135 0 0)
(-0.0006780554243041254 0 0)
(-0.0006739156173014866 0 0)
(-0.0006974162035440481 0 0)
(-0.0006618612801782906 0 0)
(-0.0006176656423140344 0 0)
(-0.0005818360194709097 0 0)
(-0.0005474312893777716 0 0)
(-0.0004513228668923946 0 0)
(-0.0003926662031930294 0 0)
(-0.000303185477122013 0 0)
(-0.000195899802309006 0 0)
(-0.0001543716657873213 0 0)
(-5.005491630392053e-05 0 0)
(0.0001005209616096528 0 0)
(7.474390943239583e-05 0 0)
(0.0001940972303006502 0 0)
(0.0003270291424227119 0 0)
(0.0003067626967872992 0 0)
(0.0004426975668910331 0 0)
(0.0004935162618294896 0 0)
(0.0004965195196064628 0 0)
(0.0005983893908761972 0 0)
(0.0006312502956042033 0 0)
(0.0005936057723957801 0 0)
(0.0006825887193687313 0 0)
(0.0006432991658921366 0 0)
)
;

boundaryField
{
    inlet
    {
        type            calculated;
        value           uniform (-2.747107801354169e-05 0 0);
    }
    outlet
    {
        type            calculated;
        value           uniform (0.0006432991658921366 0 0);
    }
    frontAndBack
    {
        type            empty;
    }
}


// ************************************************************************* //
