/*--------------------------------*- C++ -*----------------------------------*\
| =========                 |                                                 |
| \\      /  F ield         | OpenFOAM: The Open Source CFD Toolbox           |
|  \\    /   O peration     | Version:  v2012                                 |
|   \\  /    A nd           | Website:  www.openfoam.com                      |
|    \\/     M anipulation  |                                                 |
\*---------------------------------------------------------------------------*/
FoamFile
{
    version     2.0;
    format      ascii;
    class       volScalarField;
    location    "0.02";
    object      pMean;
}
// * * * * * * * * * * * * * * * * * * * * * * * * * * * * * * * * * * * * * //

dimensions      [1 -1 -2 0 0 0 0];


internalField   nonuniform List<scalar> 
1000
(
101337.4728706407
101342.0328039233
101354.5316722818
101345.9960155933
101332.5426826235
101339.1325689467
101338.2209698919
101337.9775002245
101332.9190038555
101342.7280420899
101348.2894203232
101352.4033872481
101344.4649659969
101330.6369798006
101331.9350098046
101333.5598372492
101341.0227876374
101339.7175709958
101340.4826972438
101344.6188511405
101348.3036128637
101341.8473219184
101331.8050602545
101323.2590743982
101330.7195160865
101336.8862934709
101336.3866320122
101326.6990084874
101333.4435811406
101338.2650517709
101338.4241035068
101326.0454080517
101320.5475988628
101323.0023514791
101333.9269916152
101337.6899413899
101323.964881357
101323.8120881942
101323.5742853025
101329.2888469316
101328.2000033071
101324.9878350482
101327.2584764682
101329.6054664923
101323.6140134824
101313.6752567633
101308.3200293322
101305.8323610247
101321.6061851126
101330.5535716205
101323.5962465504
101313.5891189615
101318.3762993265
101314.155888279
101307.1081624535
101305.9192749989
101315.0645783557
101324.2179569319
101331.1065552561
101319.0012257724
101312.1597002386
101306.1808266794
101314.943236616
101320.9532393304
101318.2842978727
101315.4011138962
101321.2665088646
101322.7483118088
101315.9390446842
101307.4486672717
101302.0417845812
101310.1962240798
101319.8002482666
101316.0622192654
101308.6614830188
101312.2380456926
101314.5777912763
101306.9656330902
101295.4764304908
101291.7135072483
101296.2970214908
101310.2595124813
101311.5006672849
101303.4626273188
101303.9503314071
101311.2203265571
101321.2804760552
101323.0850650594
101322.4661136964
101324.5912111779
101329.6013378823
101323.0732673069
101311.7771896445
101304.403177223
101306.4649924957
101322.3705808622
101323.8508082174
101315.681171687
101308.1921668742
101311.4552946972
101310.1007439544
101307.5895879922
101307.9095754695
101318.2572302358
101328.1015963889
101322.6721562068
101302.8071921819
101299.405034692
101292.5577501191
101303.1643047327
101302.7030146644
101298.4676028208
101298.5260413273
101303.3826037713
101305.417382435
101297.4348558639
101287.3349991263
101284.2508302309
101291.6892002222
101296.9981602221
101288.7692000746
101280.1107213898
101284.5121319794
101283.0716614911
101282.5110465693
101281.2277712092
101286.3368218231
101294.8216092916
101298.8858066853
101294.8461558553
101280.3183339802
101281.5283844392
101290.5555506045
101297.8491024254
101301.2765319761
101298.9038296291
101299.9557966803
101294.505362432
101286.863672624
101277.8792409393
101278.3473177463
101284.7510582975
101296.9662065494
101293.8703386233
101283.0899294487
101280.4410999235
101272.5777883621
101268.0345988167
101266.2455865614
101265.8999620231
101283.7604483699
101290.3132462367
101289.2900844506
101276.4350299593
101281.3023440757
101283.0942822919
101292.9603813426
101292.7467244809
101289.1750401497
101288.1329033735
101291.1683444664
101288.3949628325
101280.6659571392
101276.024026709
101278.3427975809
101289.0073588677
101289.9632490388
101288.1668396594
101290.2385714437
101288.9932933036
101281.6302839906
101280.3852680178
101278.8334023263
101286.2492763399
101298.963992718
101297.8171545422
101290.9576610709
101280.716675273
101280.3274120953
101285.5257495141
101289.5137310087
101289.9945189904
101285.6469791158
101292.8647214149
101291.837208432
101282.1908528294
101271.2925992967
101269.6798820281
101276.6929138959
101284.3422685435
101284.2825517941
101274.3943776034
101272.9400157604
101268.3846342743
101272.2254193062
101275.378593132
101279.5531832365
101292.5297054503
101294.7030870385
101288.3662146663
101272.1908502373
101272.7282423243
101267.2655749568
101267.210577484
101274.7039671528
101270.6410926523
101274.0890015312
101274.6084147199
101271.9527854014
101267.2570576812
101267.4336828629
101275.1778060979
101284.596591785
101281.0898529882
101267.6819333243
101261.4321439141
101251.1800989556
101248.6929158242
101251.2354809856
101256.425533544
101265.3587451269
101277.1296118867
101276.6806551941
101266.8636999185
101261.7473411357
101263.1272375206
101264.1780791341
101270.7072663723
101264.100563774
101251.153994077
101249.2687182189
101242.6955371992
101235.7433086017
101233.872961104
101247.8052275366
101255.5747125875
101263.6498390379
101255.7632194768
101248.7552103782
101251.4819422503
101256.7113345052
101259.2563173255
101258.1193434974
101260.3065753665
101259.990079212
101259.5508048032
101250.8653030795
101240.0209503284
101237.3954273063
101238.5886647172
101240.5572012018
101238.8746515631
101235.807469486
101240.1146730062
101240.5197337179
101237.8177439483
101236.1644175032
101226.4123561403
101232.5309852284
101232.9032559934
101231.6213826141
101225.9920472804
101226.8811091184
101221.2730768808
101222.3836891608
101227.6566576734
101228.6783478211
101236.7912223973
101248.6612384255
101248.6570251029
101238.5376328993
101234.6803138469
101228.6507660076
101232.0208315224
101234.4153498313
101232.7084100833
101228.7039587421
101236.5177237447
101230.6425923494
101227.4789445248
101219.325841187
101224.6162486073
101225.5274068641
101230.0078362604
101221.9950340683
101218.6833732286
101216.5089107544
101215.3502692417
101216.9041796193
101216.5639312147
101222.5335853493
101223.824001842
101225.1235518699
101211.0706316583
101203.975030403
101196.388894193
101205.4583580261
101207.290779194
101206.7595239877
101204.8751313856
101213.5795074869
101214.9334840865
101217.1581796921
101207.7405746366
101204.6906267575
101199.7456876468
101202.9445546266
101198.5452311415
101197.3393464548
101197.4344156675
101196.1967785054
101199.7522118482
101203.1675849763
101200.9190009259
101210.7399529729
101217.4748464083
101210.7511130019
101203.7770363851
101190.9593981259
101195.0111324954
101203.5867317962
101205.5222631725
101202.2533584239
101205.5769044617
101203.8251650952
101199.0300159025
101189.2339215352
101185.2527101688
101184.8930746948
101189.5926808745
101188.6702261005
101184.3033245662
101178.7493263804
101175.5397291993
101184.0016486013
101186.3945689754
101189.6422905945
101195.388979402
101201.439038725
101192.86883398
101193.3739592892
101184.3959337518
101179.202647283
101180.2219221512
101179.1968942844
101171.7534214585
101174.5321452552
101176.5434120898
101182.3871231148
101175.1837236547
101180.2022399737
101176.109830054
101187.3007021498
101186.632196593
101180.5478840056
101168.2632237621
101161.911214074
101158.8766725413
101158.147099
101160.9491107283
101164.3392711167
101169.205321367
101161.5192681383
101165.1985619777
101160.7927352174
101154.212098972
101161.565289506
101169.0018479799
101162.8012963251
101161.2727989914
101156.229612937
101151.9525020544
101142.3698827243
101139.1859883185
101131.9824916131
101138.6028170014
101138.3607620693
101141.3461403302
101137.834813411
101135.8647442375
101137.7014431727
101141.4796497571
101140.329076182
101135.4919191308
101135.7620302742
101127.6894234368
101125.6788294077
101118.3966997388
101111.5207174687
101113.2510512343
101112.8573415312
101117.103895704
101121.4056183441
101114.7249138502
101119.9265632791
101119.0136702255
101113.7976649146
101113.2153435043
101118.987193257
101118.1278813958
101113.7614011095
101107.1265876154
101101.1931175507
101095.5545512592
101102.9589239757
101104.7238576187
101117.1906969022
101115.861027598
101118.2680320919
101113.8657194863
101112.7706541344
101108.7366015207
101110.2670435622
101110.0655943406
101105.7864872885
101104.6028041889
101094.9461514458
101095.8585875748
101097.9659050141
101098.0297625472
101102.6672828455
101098.7698596146
101092.6189174341
101088.0587855317
101088.1062185139
101085.4241173983
101082.1899926548
101085.3563229197
101085.2286911349
101081.3849254032
101079.1598640855
101077.9630289316
101082.5249748708
101082.3335455741
101087.9714333424
101082.3303289035
101078.8732103531
101074.7862810096
101072.7104076865
101063.2739907575
101065.6664293391
101065.5288899031
101062.0932237926
101059.0416355795
101056.3222008977
101053.7818131994
101056.4401456751
101065.040635187
101057.8209983521
101047.3881132469
101035.7130222847
101034.5780360894
101036.2276816982
101041.8320155514
101038.1217416388
101041.2246948456
101036.7681920545
101037.2319043765
101032.7920163035
101042.3836196062
101044.0882261787
101045.629387541
101045.6424879994
101042.8138678433
101033.0264248625
101038.6548749033
101031.5652751669
101021.2035729483
101016.8740903782
101025.4567759351
101029.8972082121
101033.2104923334
101026.5052182152
101026.0796442986
101021.3585316472
101029.1602952969
101031.3748672045
101018.9904250241
101010.588106152
101007.0466299107
100998.3675318957
101001.9418465553
101004.0305030784
101001.8952473201
100996.2516705606
100991.9514590148
100992.4510052968
100992.6593761289
100998.8367610068
100995.5380325451
100994.1238463113
100986.1426864771
100983.7568790102
100983.5735513085
100988.3807291555
100985.2555747176
100977.101467669
100966.0990424611
100972.1641365831
100982.0528414524
100987.2611484021
100993.9374941116
100984.4963748601
100973.8701038357
100975.2690704649
100977.0874208574
100970.2560845719
100981.8619975961
100982.6196989412
100975.3626463262
100972.3638584531
100972.8894917647
100971.1495361578
100977.8227865954
100972.5178257415
100966.5906231146
100961.8989149677
100963.9676683412
100966.4304429748
100969.6330340637
100963.7746530398
100963.1954058435
100960.7452516256
100964.7542896434
100962.6822609193
100957.8877554244
100949.1673698909
100947.6401630973
100939.2349591087
100932.9387212867
100932.2512870356
100927.0617621621
100922.449731651
100925.8740403134
100923.8893618094
100922.6678022176
100927.4347017345
100924.1997767234
100921.1167846693
100925.0145113389
100924.0803270815
100919.5276444225
100919.2307296994
100906.5078950841
100907.4568124207
100906.9356139665
100911.8084616364
100918.0785114185
100918.6941897533
100918.3343126365
100916.7599304178
100917.8429304687
100911.4034995038
100912.7713512348
100915.8292678686
100909.1032162989
100901.9074180259
100902.8332590502
100902.9577333004
100907.3246093103
100899.1644726479
100886.9645889152
100879.0323948226
100891.1286636503
100905.6468397125
100907.0749149079
100903.3456838686
100891.4460546958
100899.159724232
100899.0061954868
100905.7879582572
100901.9138705961
100894.0876170628
100876.3618892308
100872.1947747317
100865.4250938544
100872.8235092989
100883.649352132
100883.7823657319
100874.6150452277
100877.1750012398
100877.1022167531
100881.8718832436
100885.8126032108
100880.4700816151
100877.8372406331
100872.5470631356
100866.0698747421
100856.3397048564
100857.3664094474
100853.9020373224
100854.4079498683
100854.9180814633
100858.4032681429
100855.6778910833
100853.3849289182
100854.2051857441
100853.3185640457
100848.4629757546
100848.7414095136
100850.4508140645
100842.0658804895
100839.7487803749
100834.8778904079
100834.3631960655
100842.9498153676
100847.7396433512
100844.1665383495
100834.7918353893
100821.8236712526
100820.8584542222
100817.3914124667
100820.3523396989
100825.6208012935
100818.5722105713
100814.7711553744
100815.4138805665
100819.1547047928
100825.6839258618
100826.0261531132
100819.9663939361
100806.3091896695
100809.8800383141
100810.1208274221
100811.2716811293
100807.749266664
100799.93064883
100796.486276453
100800.613445969
100800.2701993024
100800.0341426283
100797.5916750207
100796.4224348496
100792.3316003393
100792.9505045453
100791.440321834
100787.762569705
100780.7735718948
100777.9740266866
100778.7281037711
100778.2205545432
100778.8976971177
100774.0300329878
100778.6824618192
100780.2131981851
100790.3957937427
100786.3720772812
100779.1180334893
100766.7190762421
100763.5177370165
100761.2902620214
100762.0775786876
100759.6849807778
100755.1478693409
100751.4915368921
100751.598524331
100750.3095800668
100748.2905994204
100751.2137852093
100749.3881071689
100748.0440929609
100747.0646133419
100743.1905287468
100733.2724033213
100731.7825635733
100742.6878916448
100742.2809240921
100743.3585819198
100733.7171920974
100727.096777687
100728.3978209397
100735.9228803597
100729.7613162557
100720.2230133442
100716.8123830173
100715.1245966413
100718.7231546171
100725.2091367764
100718.6872768188
100714.3257519796
100712.3947080989
100714.4167396946
100716.7046320503
100706.6847537847
100701.9447013816
100695.7132306076
100701.5766563516
100704.4861786957
100703.1921201201
100693.3686275504
100694.1974542953
100695.7911934789
100697.3530225646
100703.1539533005
100698.4257827252
100693.848219182
100690.0977679459
100690.6357412276
100685.0936116259
100679.97449725
100681.6588313514
100678.2520861586
100671.1446263965
100664.4512237405
100666.1680965108
100669.8440364797
100673.1173373684
100673.6925623491
100665.6851337204
100666.0354240965
100664.0323217747
100665.6242962931
100661.7084303281
100655.7003330607
100650.757707568
100652.0093296921
100649.3634070575
100653.8742000941
100649.8068733278
100649.8415395038
100648.5608954928
100643.6053250513
100639.9578813593
100633.9549149756
100636.3701180916
100641.4460958722
100637.2791101816
100629.0239711809
100626.4885568677
100622.2338607133
100628.2460675671
100625.3938674986
100616.1666686266
100611.5628298657
100609.436915433
100618.3428195098
100620.3146262668
100619.0277086514
100615.729243438
100617.1529402461
100613.9041291396
100613.7727653666
100599.6668554862
100592.5388396682
100592.5979892282
100599.5698212279
100600.9840584007
100590.5224288022
100583.13429775
100577.1778627313
100583.189406722
100585.3722580871
100580.2216481984
100573.1294180327
100571.145653896
100569.802404117
100569.8974020595
100568.6088289336
100568.4740770588
100569.3672327308
100565.8400341101
100556.1440692751
100549.524778978
100544.8029028063
100545.8643511961
100550.8954633591
100550.9408712302
100538.515284316
100544.4917699149
100543.4871765007
100550.1017788436
100551.218026426
100544.3579840804
100533.0863537982
100531.2138372466
100529.2052317755
100524.8361011281
100525.5292129042
100518.9142105827
100521.8708461269
100524.7948464387
100523.8028042216
100519.6119258528
100519.7614843676
100511.3172122749
100512.1749926773
100508.5252200169
100506.5125969193
100504.0720160996
100500.3035861598
100493.9851031313
100492.6845080404
100489.0504207812
100486.3817606642
100484.8167016466
100480.4716335569
100480.8517357061
100483.1190480537
100486.9009811835
100479.2748201738
100476.3339373221
100475.6201306493
100470.1224893256
100471.7062871486
100455.4572229737
100449.65555546
100447.615273934
100449.7770645375
100453.8141296122
100445.1543665587
100443.3627206687
100449.7743386893
100454.0030856707
100451.5124954926
100442.8088697132
100432.0488843978
100427.1301187
100428.2402959874
100427.1465629431
100420.6347590961
100413.3202013209
100406.1865443837
100414.2375115942
100415.6618400499
100415.1075225779
100409.3327771937
100404.2241971278
100402.1226376291
100404.0363617041
100397.5839290483
100388.1095066198
100390.5890121764
100386.6875680395
100386.2765278488
100382.3494510845
100372.7363524582
100370.7083882508
100375.3619589999
100378.3591613047
100375.3305564791
100365.7772388441
100364.931569771
100361.4566023521
100361.1788483224
100354.8647396561
100346.8635181042
100340.9545712841
100337.9367381167
100339.3194471967
100341.8555414117
100337.9583217707
100339.1277183344
100334.9867735311
100330.8919941839
100329.6269946508
100320.4388926609
100315.2058063124
100313.3494189469
100304.6099547046
100306.5289286332
100306.3484692198
100301.1818500339
100299.551686831
100294.747129913
100295.9272153853
100297.3302324647
100290.0369718534
100278.4993818382
100274.0482564027
100273.3734528737
100280.9711998942
100279.9516250877
100273.9364498972
100265.7200072154
100264.7367631414
100264.5064869456
100263.8558876352
100255.56165928
100247.8560206642
100241.5470249681
100246.3017464839
100253.6429393014
100248.6990384216
100239.5992555818
100230.2043120817
100226.784038395
100232.6259965995
100229.3240734304
100218.9051458487
100215.5319485493
100211.2111414899
100220.7510621699
100220.2071389838
100213.8245964026
100201.6401334419
100196.7609093816
100196.5891514261
100198.1619298033
100194.2915841215
100183.1625284591
100183.4043613447
100187.9591060977
100192.2150026761
100187.2572206352
100175.6048065772
100168.6718210454
100167.3424374108
100170.6749166498
100168.3120490336
100157.9428977242
100159.2477500722
100158.2201631122
100166.8491639266
100166.6332015318
100152.0257942126
100149.6902835081
100140.8363531153
100146.7479890163
100147.7761789773
100144.5528957538
100139.4686349446
100136.4551228359
100140.6033571056
100140.1896443374
100137.1917938151
100129.1176572669
100123.0659112858
100120.7466212143
100122.0687801531
100117.8390805453
100107.2774421826
100102.9334331999
100100.8476998446
100105.1030976002
100104.4564106396
100098.2630398344
100091.6414810104
100087.9894292856
100086.8377051991
100086.8952925964
100080.7861985363
100073.0614983176
100069.1367182539
100069.4658300987
100069.3279364479
100068.1925815928
100062.0630791121
100056.1571753929
100055.545692869
100052.5104744987
100051.4559935828
100044.6736617039
100037.4675510537
100035.2339888794
100036.7264963802
100037.9503254399
100033.4068091149
100030.0119212986
100022.2213394606
100023.2347472315
100022.7294590819
100018.1163578875
100012.5309532917
100007.499985094
100005.7553418753
100007.5590082487
100009.0235014431
100004.177511463
100000.940360934
100001.2219375889
100000.0995377333
100000.3757079586
99991.38480284285
99981.9572259233
99977.596707711
99975.1932206714
99976.11392118198
99972.93936647833
99966.23380203439
99967.1156571803
99967.87493349532
99971.21467993241
99969.27118591625
99961.76257160996
99953.23836792729
99951.15365787012
99945.24847844917
99941.15587577481
99937.42563082746
99933.85828431441
99935.63873785414
99938.2102300563
99936.01820199394
99928.90120845081
99923.1354869287
99921.41902467106
99921.77531635904
99921.28659602531
99905.62931157714
99900.24175378401
)
;

boundaryField
{
    inlet
    {
        type            calculated;
        value           uniform 101324.9999814497;
    }
    outlet
    {
        type            calculated;
        value           uniform 99903.11973292395;
    }
    frontAndBack
    {
        type            empty;
    }
}


// ************************************************************************* //
