/*--------------------------------*- C++ -*----------------------------------*\
| =========                 |                                                 |
| \\      /  F ield         | OpenFOAM: The Open Source CFD Toolbox           |
|  \\    /   O peration     | Version:  v2012                                 |
|   \\  /    A nd           | Website:  www.openfoam.com                      |
|    \\/     M anipulation  |                                                 |
\*---------------------------------------------------------------------------*/
FoamFile
{
    version     2.0;
    format      ascii;
    class       volVectorField;
    location    "0.02";
    object      U;
}
// * * * * * * * * * * * * * * * * * * * * * * * * * * * * * * * * * * * * * //

dimensions      [0 1 -1 0 0 0 0];


internalField   nonuniform List<vector> 
1000
(
(7.118601477301803 0 0)
(7.840735421953989 0 0)
(11.74792278797265 0 0)
(13.18533255896331 0 0)
(9.030645988736421 0 0)
(2.775531767338224 0 0)
(-9.622279411477253 0 0)
(-16.31902739734179 0 0)
(-14.76675866215547 0 0)
(-7.062873407405464 0 0)
(1.995423812424174 0 0)
(8.767047378408243 0 0)
(12.21944536168349 0 0)
(9.879740198687699 0 0)
(2.577127369724086 0 0)
(-9.102925062064687 0 0)
(-15.22419963594885 0 0)
(-14.71109465784783 0 0)
(-10.96868105540578 0 0)
(-2.93517971236363 0 0)
(8.959580092833118 0 0)
(19.49117168172073 0 0)
(26.06480361779762 0 0)
(26.11639348205793 0 0)
(15.78014098730086 0 0)
(-2.046699357227797 0 0)
(-14.66098135053843 0 0)
(-17.20099199598747 0 0)
(-11.37581017001232 0 0)
(-0.9128720494430335 0 0)
(10.57530623684202 0 0)
(18.9310936470604 0 0)
(20.66388142104278 0 0)
(14.34789638625048 0 0)
(2.195490954150279 0 0)
(-11.15417457565029 0 0)
(-15.92024985811607 0 0)
(-11.83027405388412 0 0)
(-3.868082990285549 0 0)
(5.338644932887158 0 0)
(14.00614653975348 0 0)
(19.28939901008198 0 0)
(21.45598797682754 0 0)
(18.54443899059963 0 0)
(8.818689942500585 0 0)
(-1.50467125964432 0 0)
(-3.952782741311266 0 0)
(-2.97703275954981 0 0)
(-1.19427632065165 0 0)
(2.044325047993924 0 0)
(4.602176638981802 0 0)
(6.158095531261223 0 0)
(5.817934431700282 0 0)
(5.898672688563609 0 0)
(0.09106597725068036 0 0)
(-6.992614012674748 0 0)
(-9.96294134003003 0 0)
(-6.917565124065267 0 0)
(-1.074064956104866 0 0)
(5.017561614812965 0 0)
(7.150780055066225 0 0)
(6.252525868719477 0 0)
(3.192933587999736 0 0)
(-1.731813740712066 0 0)
(-7.069467744304832 0 0)
(-6.613707625207134 0 0)
(-1.922533146909015 0 0)
(4.391266725240627 0 0)
(10.31312168855198 0 0)
(12.95750159297524 0 0)
(12.53360511866087 0 0)
(6.805397154744185 0 0)
(-1.275978844694005 0 0)
(-5.109988646558513 0 0)
(-1.720406691570284 0 0)
(7.54369960994919 0 0)
(18.26823849136888 0 0)
(28.29393087267089 0 0)
(29.9797882579316 0 0)
(18.75653371889405 0 0)
(-5.713946754898839 0 0)
(-24.91647149451128 0 0)
(-34.01201801143394 0 0)
(-31.91736532210955 0 0)
(-24.91935786151035 0 0)
(-17.74926205975468 0 0)
(-12.56532399442151 0 0)
(-8.842786095864914 0 0)
(-3.63597170671251 0 0)
(1.810557239053627 0 0)
(5.739494349360398 0 0)
(8.984665290967095 0 0)
(8.642649607302264 0 0)
(6.052858111010115 0 0)
(5.136962717704241 0 0)
(6.277985309679031 0 0)
(11.67318187396921 0 0)
(12.96309754139866 0 0)
(8.420637604924762 0 0)
(-3.095863283638976 0 0)
(-8.938731763192196 0 0)
(-12.80636155338088 0 0)
(-11.3749774198269 0 0)
(-5.112924046597967 0 0)
(3.049069168315564 0 0)
(13.29547797977703 0 0)
(23.35083635185668 0 0)
(30.93580678167465 0 0)
(31.57161195808466 0 0)
(23.10249219835945 0 0)
(6.550178440600861 0 0)
(-7.832192314568102 0 0)
(-13.40623082829012 0 0)
(-8.811979348761696 0 0)
(1.318835398266439 0 0)
(12.45736114445503 0 0)
(23.42343365324941 0 0)
(29.56184931441491 0 0)
(27.54911915519873 0 0)
(19.02274074104366 0 0)
(12.31485290081801 0 0)
(1.05465883181826 0 0)
(-6.730707301672404 0 0)
(-15.75197384843953 0 0)
(-17.27883131928878 0 0)
(-12.56534391215886 0 0)
(-5.053603813812487 0 0)
(1.122587293035718 0 0)
(4.504055603194776 0 0)
(2.605689492118655 0 0)
(-5.119199549842388 0 0)
(-12.60770544220492 0 0)
(-13.93475470384552 0 0)
(-9.393087727237113 0 0)
(-3.206387981541782 0 0)
(4.367227339610455 0 0)
(11.66020447410633 0 0)
(15.95891594137725 0 0)
(15.72649427349682 0 0)
(10.8694690836905 0 0)
(2.171395233541828 0 0)
(-0.9420250505864994 0 0)
(1.316908216237619 0 0)
(8.417631381173498 0 0)
(18.83600416262243 0 0)
(27.86660266225177 0 0)
(29.67042451324641 0 0)
(17.43946697468079 0 0)
(-0.9047814815565901 0 0)
(-19.17122489001146 0 0)
(-27.74832225773174 0 0)
(-27.38773904485181 0 0)
(-21.66531120210119 0 0)
(-15.33570466091181 0 0)
(-7.630809840463417 0 0)
(0.1495039184862209 0 0)
(3.138590260256055 0 0)
(7.556635256051164 0 0)
(3.357023149478511 0 0)
(-5.009400482178444 0 0)
(-8.046384702061523 0 0)
(-4.355583561661564 0 0)
(4.619401716182313 0 0)
(11.30242195861072 0 0)
(12.03129868136952 0 0)
(4.485384926277292 0 0)
(-4.078547339814149 0 0)
(-6.989035965642455 0 0)
(-3.194108567596818 0 0)
(-0.5311125109359661 0 0)
(2.487790867712258 0 0)
(-2.477317990823636 0 0)
(-11.55682871399694 0 0)
(-16.16583400571679 0 0)
(-13.24650709381035 0 0)
(-4.976573136816249 0 0)
(6.226855404542582 0 0)
(13.61706566338803 0 0)
(14.97205579948709 0 0)
(7.915150186676155 0 0)
(-2.214855561530439 0 0)
(-4.345588891655758 0 0)
(-3.404337917299161 0 0)
(0.2623895558843041 0 0)
(5.936267752386534 0 0)
(11.99832252939622 0 0)
(17.07382027115506 0 0)
(20.55827222586015 0 0)
(20.29279501264485 0 0)
(13.48937068202166 0 0)
(4.528728733118059 0 0)
(0.01256344794583695 0 0)
(-7.843910288875048 0 0)
(-18.09328555715497 0 0)
(-22.32325486636394 0 0)
(-20.7511400234882 0 0)
(-15.43979849709843 0 0)
(-7.793269626580129 0 0)
(0.9947506808793777 0 0)
(11.56798997848411 0 0)
(22.67618067347757 0 0)
(32.76066837392116 0 0)
(37.76668550503324 0 0)
(28.61315564468424 0 0)
(7.142124403272977 0 0)
(-16.94105354743936 0 0)
(-28.12137045026614 0 0)
(-25.48862085507698 0 0)
(-17.07115932905853 0 0)
(-6.783932443988872 0 0)
(1.864970854575348 0 0)
(10.2992383687876 0 0)
(19.39017184580354 0 0)
(29.22619765585296 0 0)
(37.32682896641804 0 0)
(37.58776436646939 0 0)
(25.45566914294816 0 0)
(0.5489912704890955 0 0)
(-22.99561395221108 0 0)
(-33.60865321435319 0 0)
(-30.95967077952829 0 0)
(-21.7329386088801 0 0)
(-11.36693767583881 0 0)
(-1.755719190511068 0 0)
(7.284544341961407 0 0)
(16.3297365794966 0 0)
(24.80479632138637 0 0)
(31.13670547302857 0 0)
(35.47088566178986 0 0)
(32.17208536705193 0 0)
(20.5800675151841 0 0)
(10.72959654767167 0 0)
(-0.6411868759765994 0 0)
(-9.955405997797973 0 0)
(-14.19619326151562 0 0)
(-12.90033381187929 0 0)
(-11.18529005100845 0 0)
(-11.91651615091125 0 0)
(-14.47795333063056 0 0)
(-16.34726521316104 0 0)
(-15.29597495931261 0 0)
(-10.55251635882783 0 0)
(-2.872363343051999 0 0)
(6.775433783902446 0 0)
(17.09355684055786 0 0)
(27.35956407058602 0 0)
(34.8657396466462 0 0)
(36.40786647364194 0 0)
(29.60354459071547 0 0)
(18.29553951924906 0 0)
(2.629613439545924 0 0)
(-11.02632299644002 0 0)
(-15.10042494377551 0 0)
(-10.84868769878951 0 0)
(-0.9503298457394096 0 0)
(10.92600157352461 0 0)
(21.54328073221546 0 0)
(26.25475423845331 0 0)
(23.83961627104732 0 0)
(14.71687021440707 0 0)
(8.731547773894157 0 0)
(5.668678594915412 0 0)
(3.76597051931084 0 0)
(-8.422044000842769 0 0)
(-24.63657533721975 0 0)
(-29.7312608900397 0 0)
(-26.99502002075125 0 0)
(-20.41737606092844 0 0)
(-10.94903523958702 0 0)
(-0.5605281863293264 0 0)
(9.517850019957967 0 0)
(16.56449523860251 0 0)
(20.98709391811331 0 0)
(19.20583292836831 0 0)
(8.706176881780141 0 0)
(-1.785532951216207 0 0)
(-5.234385986870502 0 0)
(-0.04644468910100314 0 0)
(6.134537299880125 0 0)
(13.73175766282484 0 0)
(17.6335900968072 0 0)
(16.0440711911869 0 0)
(9.686024367128878 0 0)
(4.787114351227396 0 0)
(5.140386718239858 0 0)
(4.7376305252807 0 0)
(0.6355834519658526 0 0)
(-5.152383398640102 0 0)
(-5.527934354922754 0 0)
(-1.662392930409091 0 0)
(4.59417302052781 0 0)
(14.63557847502225 0 0)
(25.18612741128836 0 0)
(31.69962226503713 0 0)
(31.40019034593594 0 0)
(20.37823172394448 0 0)
(0.9648298912143165 0 0)
(-18.6820118751345 0 0)
(-27.36904061015051 0 0)
(-23.08875522559618 0 0)
(-13.03687920327047 0 0)
(-1.725823074894669 0 0)
(11.25016939150882 0 0)
(21.39461554674543 0 0)
(29.49451553775942 0 0)
(31.87353004322856 0 0)
(26.78220740983193 0 0)
(15.99512004962913 0 0)
(-3.088266654962728 0 0)
(-17.82794611887711 0 0)
(-29.59305137930723 0 0)
(-28.8956574675369 0 0)
(-19.57691507607722 0 0)
(-6.80698907473375 0 0)
(5.072904053684213 0 0)
(13.678431247171 0 0)
(18.43742589203348 0 0)
(17.87706970432188 0 0)
(8.072364157696954 0 0)
(-3.634361143734142 0 0)
(-6.980509117143909 0 0)
(-5.130302591303566 0 0)
(-0.6817311244425758 0 0)
(6.340170267695082 0 0)
(13.9401485042365 0 0)
(21.10102024676743 0 0)
(27.81719143945426 0 0)
(29.56983721312773 0 0)
(24.42949176748554 0 0)
(15.06950900456956 0 0)
(10.54128082688859 0 0)
(2.581228750263821 0 0)
(-10.56706188482679 0 0)
(-17.04873223045443 0 0)
(-21.5606774984002 0 0)
(-19.74996091032499 0 0)
(-14.96417793336475 0 0)
(-9.093378245430776 0 0)
(-2.444998070404327 0 0)
(5.917993403929775 0 0)
(15.79058256595868 0 0)
(25.79088398036562 0 0)
(34.350771176093 0 0)
(35.70944689959254 0 0)
(24.43338587116122 0 0)
(5.076090054741622 0 0)
(-14.71765300171796 0 0)
(-22.88836251496134 0 0)
(-19.53736302235759 0 0)
(-11.34734559866616 0 0)
(-2.706534659073386 0 0)
(5.219336414932354 0 0)
(12.74108327716979 0 0)
(20.74074364915741 0 0)
(27.56410827743386 0 0)
(33.03329134854201 0 0)
(29.67668778158246 0 0)
(15.88259910811887 0 0)
(3.186475908802584 0 0)
(-1.656826742558905 0 0)
(-7.583701884478082 0 0)
(-9.209194335272661 0 0)
(-6.408516612567766 0 0)
(-1.722588989612838 0 0)
(2.139915781672892 0 0)
(5.898590458514935 0 0)
(7.252175403799159 0 0)
(7.690018413843728 0 0)
(9.250675951267686 0 0)
(13.17902803591401 0 0)
(19.59284997025076 0 0)
(28.11997521739963 0 0)
(37.10681168830848 0 0)
(41.48437129102631 0 0)
(34.33895310988625 0 0)
(13.13129700196991 0 0)
(-10.58653796200948 0 0)
(-23.32673806587158 0 0)
(-21.98847030186878 0 0)
(-13.44576320243447 0 0)
(-1.620598814169829 0 0)
(9.843548595080964 0 0)
(19.04128078313138 0 0)
(24.80078779648203 0 0)
(27.85082667809929 0 0)
(27.74649229242119 0 0)
(26.32378475467777 0 0)
(24.04266020319758 0 0)
(22.7848342381183 0 0)
(15.35004175237674 0 0)
(0.7788963930774239 0 0)
(-5.589851659949108 0 0)
(-13.8160427588312 0 0)
(-16.5387718319759 0 0)
(-12.14928821932363 0 0)
(-2.84239030698003 0 0)
(6.070368792434355 0 0)
(16.05439925132951 0 0)
(23.13310967295387 0 0)
(26.29528798245305 0 0)
(22.96825101443437 0 0)
(14.93941791580746 0 0)
(7.542822473509903 0 0)
(-1.457970268068209 0 0)
(-15.62910716868068 0 0)
(-23.67956042836146 0 0)
(-23.36577225623222 0 0)
(-17.40739965483364 0 0)
(-8.808762092487521 0 0)
(0.1964450257054832 0 0)
(9.882970122605482 0 0)
(18.05965808606329 0 0)
(22.98522281084831 0 0)
(24.95365741601647 0 0)
(22.79674969864612 0 0)
(12.1430461255839 0 0)
(2.099990784797748 0 0)
(-1.482905253447149 0 0)
(1.989303097536675 0 0)
(7.693635580176113 0 0)
(13.5638991106181 0 0)
(18.61198208014611 0 0)
(18.07485375232242 0 0)
(12.05134941123263 0 0)
(5.652512221522056 0 0)
(4.873452873057923 0 0)
(9.74292213693867 0 0)
(13.558540628052 0 0)
(12.7479817982182 0 0)
(4.373777639979191 0 0)
(-3.167276634147815 0 0)
(-5.989573871301294 0 0)
(-5.718807591045461 0 0)
(-2.003172283648728 0 0)
(3.468464022912734 0 0)
(9.94822057011382 0 0)
(17.23018406117952 0 0)
(25.00316767024309 0 0)
(31.6835518627404 0 0)
(31.81280106469188 0 0)
(24.49020752376628 0 0)
(13.04508293558947 0 0)
(3.570491802368246 0 0)
(-3.303128851462406 0 0)
(-3.023676936481557 0 0)
(2.943228696274014 0 0)
(14.05120548510016 0 0)
(23.98953089590429 0 0)
(31.15799548737842 0 0)
(32.6292909236223 0 0)
(27.19467581982596 0 0)
(13.27086528584629 0 0)
(1.317740397241094 0 0)
(0.4281413843427855 0 0)
(2.857844355391755 0 0)
(2.708549721422512 0 0)
(-2.304863352906985 0 0)
(-11.56060252805269 0 0)
(-15.5860719019418 0 0)
(-13.87913712157516 0 0)
(-9.282280963671175 0 0)
(-1.725277283956752 0 0)
(6.295056781060987 0 0)
(15.46458272485375 0 0)
(25.1786529029329 0 0)
(33.68856478345508 0 0)
(37.23595874474304 0 0)
(29.1972871209191 0 0)
(8.508301732689334 0 0)
(-11.47959615631423 0 0)
(-22.87025022707729 0 0)
(-21.24189534170572 0 0)
(-12.51799441602428 0 0)
(-0.4080753948971946 0 0)
(11.77233338045356 0 0)
(24.00390500406467 0 0)
(33.14693845860837 0 0)
(38.32466374002028 0 0)
(38.14958071381655 0 0)
(28.96997022653688 0 0)
(18.75122055910915 0 0)
(12.5536403601504 0 0)
(10.74961343157022 0 0)
(11.60486581908711 0 0)
(10.33172776890223 0 0)
(5.712309728776389 0 0)
(1.373419388157296 0 0)
(0.3420097879839952 0 0)
(0.5003461995638472 0 0)
(4.183113536843736 0 0)
(11.13667648867069 0 0)
(19.09950296520773 0 0)
(25.09689055038696 0 0)
(26.37791732990859 0 0)
(21.35101910021565 0 0)
(15.46960528709358 0 0)
(3.129821706978171 0 0)
(-6.003882805406732 0 0)
(-17.93355005926499 0 0)
(-19.82003476190024 0 0)
(-13.03339670627098 0 0)
(-1.421992826493544 0 0)
(9.766003416762445 0 0)
(17.23113139160225 0 0)
(19.5764112708338 0 0)
(14.30687156361712 0 0)
(1.506884187911506 0 0)
(-5.470807016230916 0 0)
(-6.498040216032225 0 0)
(-0.6432348544739926 0 0)
(6.416592566767297 0 0)
(14.06887346561456 0 0)
(16.9270917792234 0 0)
(14.84579815817473 0 0)
(8.984673786709592 0 0)
(5.454186111795996 0 0)
(6.709222033023068 0 0)
(6.334391476891832 0 0)
(2.981945590136261 0 0)
(-1.646021583046236 0 0)
(-2.233973852075374 0 0)
(2.674846781997468 0 0)
(8.394096883929457 0 0)
(16.02781965287182 0 0)
(23.36168268787896 0 0)
(29.87480142534122 0 0)
(35.5012194919544 0 0)
(39.36003786065016 0 0)
(39.67541218881257 0 0)
(35.97082807998714 0 0)
(28.28872641236066 0 0)
(17.98735647108724 0 0)
(7.031711189310541 0 0)
(0.526921024394339 0 0)
(0.06021931686418058 0 0)
(-1.630971000421032 0 0)
(-3.17162388914405 0 0)
(-2.493593002630705 0 0)
(1.702184235878279 0 0)
(11.01846091077269 0 0)
(19.1469675540523 0 0)
(28.14957390700927 0 0)
(30.55828915470094 0 0)
(22.23057975291351 0 0)
(0.9266223240806684 0 0)
(-12.53895029537462 0 0)
(-20.99150786940528 0 0)
(-19.56272276893628 0 0)
(-12.60836442346373 0 0)
(-4.046525461388826 0 0)
(5.508085613811203 0 0)
(12.74194958424037 0 0)
(16.94790659558506 0 0)
(18.29039812012286 0 0)
(15.15710721689566 0 0)
(10.53844652559919 0 0)
(8.874732633857903 0 0)
(13.17091954557661 0 0)
(19.04133891169138 0 0)
(26.9240653681425 0 0)
(28.39672543843121 0 0)
(19.19666125294807 0 0)
(-0.1669983070343041 0 0)
(-17.06533652915434 0 0)
(-25.31256320271912 0 0)
(-23.18499694181908 0 0)
(-15.44256805765275 0 0)
(-5.034722334482564 0 0)
(5.662877338567191 0 0)
(15.91147866492528 0 0)
(25.58392187155319 0 0)
(34.16546802188732 0 0)
(41.51900713353395 0 0)
(44.16472833312704 0 0)
(38.14292151175508 0 0)
(20.44190140065556 0 0)
(-2.912148698423393 0 0)
(-20.46427832304721 0 0)
(-25.65936056847418 0 0)
(-21.49436581916374 0 0)
(-13.48820095974831 0 0)
(-4.369353436057976 0 0)
(4.847102839653103 0 0)
(13.68586664634117 0 0)
(21.48070725197783 0 0)
(27.88207905632678 0 0)
(33.29127034548134 0 0)
(34.04028195387428 0 0)
(30.63563006779409 0 0)
(23.78781166845303 0 0)
(16.69370242935038 0 0)
(8.547699057055036 0 0)
(-5.399507926400543 0 0)
(-12.63634241606371 0 0)
(-11.33122573691825 0 0)
(-3.648401396776149 0 0)
(7.813141728757508 0 0)
(18.75990165174901 0 0)
(26.19310453950938 0 0)
(28.52863490010041 0 0)
(23.75168518878755 0 0)
(9.673004750824349 0 0)
(-1.319398873612794 0 0)
(-4.546222106304532 0 0)
(-1.904610307880428 0 0)
(3.826607175092388 0 0)
(11.42452320655735 0 0)
(20.82967683794502 0 0)
(29.6758939944295 0 0)
(35.82964579868968 0 0)
(34.71972317634776 0 0)
(25.09971305661616 0 0)
(9.996386791073203 0 0)
(-4.957910981153362 0 0)
(-12.49976859093079 0 0)
(-10.53279647333246 0 0)
(-6.315658619169946 0 0)
(-0.9079435565165378 0 0)
(5.96315130112461 0 0)
(11.66154363171858 0 0)
(17.24683128788793 0 0)
(21.87679200089746 0 0)
(21.33676152402455 0 0)
(17.48962858502184 0 0)
(13.90056704826547 0 0)
(15.43229373231485 0 0)
(12.51463840419672 0 0)
(13.03738528881635 0 0)
(6.893577405398045 0 0)
(2.362270114981479 0 0)
(2.403088047205113 0 0)
(5.509837711042863 0 0)
(7.414785202889543 0 0)
(10.06032734036229 0 0)
(14.50284804376984 0 0)
(20.92292810447406 0 0)
(24.86264921756023 0 0)
(30.74896666673748 0 0)
(26.70086986114149 0 0)
(10.50089701482825 0 0)
(-2.468938608111343 0 0)
(-14.28827147381323 0 0)
(-17.74457535096654 0 0)
(-13.28676782090006 0 0)
(-4.288060676484355 0 0)
(6.696603252843703 0 0)
(16.90379933538945 0 0)
(27.93457546617365 0 0)
(35.35560354721969 0 0)
(38.37995642454357 0 0)
(34.64210675525451 0 0)
(26.74601833106271 0 0)
(11.97054361821071 0 0)
(3.686020907220465 0 0)
(5.03371719854685 0 0)
(5.009083509244819 0 0)
(8.60131874691764 0 0)
(8.010302663790238 0 0)
(6.576702510529749 0 0)
(7.06220099729775 0 0)
(11.31033512426243 0 0)
(16.73568200458408 0 0)
(18.98600628043021 0 0)
(14.46376936587954 0 0)
(5.867397038810627 0 0)
(1.555186470505823 0 0)
(-0.7935154177443665 0 0)
(0.9141297602845256 0 0)
(7.402321854636381 0 0)
(15.61876038548399 0 0)
(24.2396260929015 0 0)
(30.21415129317046 0 0)
(28.5188781588127 0 0)
(17.55924922701633 0 0)
(3.965865221097461 0 0)
(-5.199771485362353 0 0)
(-6.394373764960302 0 0)
(-0.3078335257793339 0 0)
(8.529293153105742 0 0)
(15.87311807773187 0 0)
(18.8574876825651 0 0)
(18.52059503824806 0 0)
(17.55073258615139 0 0)
(18.97037434797587 0 0)
(17.39005714989221 0 0)
(17.26686777846929 0 0)
(10.19422533551256 0 0)
(4.581773854033926 0 0)
(3.924354027584181 0 0)
(3.521342726834908 0 0)
(1.136912184402454 0 0)
(-0.3637512979913361 0 0)
(1.155598079137645 0 0)
(6.07041037211229 0 0)
(8.193010415795431 0 0)
(12.98112975557463 0 0)
(17.6211779897071 0 0)
(21.24344483930526 0 0)
(24.33063472930542 0 0)
(27.94575102181696 0 0)
(29.63020531594047 0 0)
(25.16231461325239 0 0)
(17.06118331375916 0 0)
(12.05530711354697 0 0)
(4.290723518349152 0 0)
(-3.315195553855897 0 0)
(-7.542516508106645 0 0)
(-5.453176191259566 0 0)
(1.620960986003935 0 0)
(11.7282005512984 0 0)
(21.96262084154145 0 0)
(28.98589301519609 0 0)
(29.50710408717865 0 0)
(24.7674526792327 0 0)
(12.42924933816647 0 0)
(0.6445506073643077 0 0)
(-2.707169594255309 0 0)
(3.067725869275824 0 0)
(9.801252727193008 0 0)
(17.03344185074271 0 0)
(19.43983282064998 0 0)
(16.81585876619211 0 0)
(11.68880856144041 0 0)
(8.878420271619406 0 0)
(11.81389061222076 0 0)
(12.11699182735973 0 0)
(11.51553309217409 0 0)
(11.69430158632801 0 0)
(15.86575244616107 0 0)
(22.91039347496974 0 0)
(29.45569856878137 0 0)
(29.95906151223605 0 0)
(19.02577696079148 0 0)
(1.162948560394172 0 0)
(-8.990815838346512 0 0)
(-13.85883709366469 0 0)
(-10.17301382742982 0 0)
(-1.615477777295103 0 0)
(9.453012406345387 0 0)
(19.9538882158832 0 0)
(29.69900817923611 0 0)
(34.39778842740434 0 0)
(33.30979744779674 0 0)
(29.35793788981506 0 0)
(18.3541607359203 0 0)
(9.938002109694439 0 0)
(10.41737616061334 0 0)
(14.12884881510009 0 0)
(19.63294432107034 0 0)
(21.85448200623185 0 0)
(19.02639641644577 0 0)
(14.84242490262235 0 0)
(12.73152922247289 0 0)
(14.49946416702331 0 0)
(12.29211382227664 0 0)
(8.46588786772295 0 0)
(6.585874166742815 0 0)
(9.936674247243339 0 0)
(14.52152310348253 0 0)
(20.91463442585094 0 0)
(26.2436914440514 0 0)
(29.60068611791946 0 0)
(30.42954396459465 0 0)
(26.28380574678646 0 0)
(14.59546386383603 0 0)
(5.964272464505408 0 0)
(-7.026780303054788 0 0)
(-11.85112044059665 0 0)
(-9.27653734169437 0 0)
(-2.118849171564649 0 0)
(6.277303894164875 0 0)
(16.07269872600966 0 0)
(25.07349340094141 0 0)
(33.09090612375103 0 0)
(36.04325675291015 0 0)
(32.82747732174846 0 0)
(22.62831799862674 0 0)
(8.950667172261769 0 0)
(-5.970009059624148 0 0)
(-8.686913321408408 0 0)
(-3.573205739823012 0 0)
(6.432870104329314 0 0)
(17.1921349117338 0 0)
(24.71564195737422 0 0)
(26.23129255512595 0 0)
(22.15682618715444 0 0)
(17.37337507715636 0 0)
(17.30395106474734 0 0)
(20.69545057580672 0 0)
(25.48612705288227 0 0)
(30.77724293890514 0 0)
(29.13165355265665 0 0)
(19.89768898756806 0 0)
(10.16029829760901 0 0)
(9.749284615687175 0 0)
(3.386010179397314 0 0)
(-0.08003596535350253 0 0)
(0.5092865856717533 0 0)
(5.607189066328224 0 0)
(11.63322368101751 0 0)
(18.82898256190593 0 0)
(26.78951249185716 0 0)
(34.7605057541782 0 0)
(42.73432521760882 0 0)
(46.20547687133059 0 0)
(40.24270989724647 0 0)
(22.79788360042497 0 0)
(2.150540175559573 0 0)
(-12.06750785603314 0 0)
(-13.55127423396732 0 0)
(-7.138001345326193 0 0)
(2.132403891094635 0 0)
(12.77147060976668 0 0)
(21.94660244666521 0 0)
(30.4797817751179 0 0)
(37.16521246998049 0 0)
(40.99210625884011 0 0)
(39.96007657530836 0 0)
(33.06168251474563 0 0)
(23.04503641974483 0 0)
(13.01554663471747 0 0)
(0.376171362071461 0 0)
(-3.282172613648854 0 0)
(0.2593133369235885 0 0)
(9.721917958272224 0 0)
(19.53809526996893 0 0)
(26.06864521552926 0 0)
(27.0292136592906 0 0)
(24.83694634984186 0 0)
(23.23986121363588 0 0)
(24.81310443898341 0 0)
(25.44373096905121 0 0)
(29.28083821177083 0 0)
(24.46972925356417 0 0)
(14.16328713676828 0 0)
(7.774657526279715 0 0)
(9.076920926130432 0 0)
(7.674754132290159 0 0)
(8.563168792555915 0 0)
(11.06001927337153 0 0)
(15.98453498734757 0 0)
(23.41634513550069 0 0)
(30.55457487546192 0 0)
(37.92134993624163 0 0)
(42.43029396985222 0 0)
(39.00136838754472 0 0)
(24.90779825597905 0 0)
(6.652619612256046 0 0)
(-2.315617819782759 0 0)
(-2.682516722136176 0 0)
(3.345296777285845 0 0)
(12.28038289939925 0 0)
(22.1708298620942 0 0)
(30.90108895028375 0 0)
(37.41455065223238 0 0)
(38.97805588941257 0 0)
(37.82472317168413 0 0)
(32.9369357585755 0 0)
(25.54539091572683 0 0)
(12.76674530697194 0 0)
(6.531542636221311 0 0)
(6.585231334965438 0 0)
(7.39967265890468 0 0)
(15.05467826230045 0 0)
(26.47769817292347 0 0)
(34.43903276542 0 0)
(36.76033833116063 0 0)
(31.23733975248203 0 0)
(19.64592284436122 0 0)
(6.03785353857738 0 0)
(1.192747604904841 0 0)
(3.841845436682782 0 0)
(11.62407157941278 0 0)
(21.51284290157887 0 0)
(31.78120748623737 0 0)
(36.80222175350569 0 0)
(34.70128481269431 0 0)
(27.44466670356393 0 0)
(18.09497398110589 0 0)
(7.52058324538738 0 0)
(5.350449374151468 0 0)
(9.166083338617595 0 0)
(17.08084225360631 0 0)
(25.99352814181589 0 0)
(34.34146406971011 0 0)
(37.06230197773042 0 0)
(32.29112362440032 0 0)
(23.20705917296068 0 0)
(13.11463098411312 0 0)
(4.981911311071648 0 0)
(4.363974593502712 0 0)
(8.947754168262014 0 0)
(18.2548084714723 0 0)
(28.14580440077532 0 0)
(36.79821787956858 0 0)
(39.37421117497329 0 0)
(33.3850159300634 0 0)
(22.88127385158386 0 0)
(11.55447684927514 0 0)
(2.161949598383661 0 0)
(1.377794161047765 0 0)
(6.640942152292407 0 0)
(15.02700186887215 0 0)
(24.97055670759669 0 0)
(32.79129712054306 0 0)
(37.83621128977434 0 0)
(33.61336359878817 0 0)
(19.6775147287194 0 0)
(6.476004835259705 0 0)
(-2.97372677903652 0 0)
(-3.029682126809162 0 0)
(2.746966221542115 0 0)
(12.69061943284871 0 0)
(22.80225629843492 0 0)
(29.08727352057987 0 0)
(31.05862710102826 0 0)
(25.39366374087783 0 0)
(11.18776208430609 0 0)
(1.69971686493673 0 0)
(-0.8662540277016643 0 0)
(1.841784684903444 0 0)
(7.799291669448859 0 0)
(14.61382189418773 0 0)
(19.68162098736156 0 0)
(23.03873647700591 0 0)
(26.2179233442654 0 0)
(29.67649178361347 0 0)
(31.29115123235676 0 0)
(34.77330433147073 0 0)
(32.53261800684264 0 0)
(23.08609824172155 0 0)
(13.17745836955517 0 0)
(10.83609530795647 0 0)
(11.58341464457813 0 0)
(14.41160635149209 0 0)
(19.12932474063841 0 0)
(24.24701504069049 0 0)
(29.14108345674686 0 0)
(30.79667112812814 0 0)
(30.09277878932971 0 0)
(27.58132182621091 0 0)
(26.51303857773247 0 0)
(20.22725038763853 0 0)
(13.18999252525578 0 0)
(11.56841736202764 0 0)
(15.14294528614753 0 0)
(20.34686910700606 0 0)
(25.58890856002423 0 0)
(29.59715630539032 0 0)
(30.35720877016309 0 0)
(28.19195008657613 0 0)
(25.44814817114315 0 0)
(18.38249036880704 0 0)
(12.26857404515248 0 0)
(10.72724832428295 0 0)
(12.90963557612454 0 0)
(14.13503742397686 0 0)
(17.55091755834483 0 0)
(21.83127540187412 0 0)
(25.06717830223667 0 0)
(27.79495581718828 0 0)
(27.31364384753719 0 0)
(20.71653469006133 0 0)
(13.1003009171615 0 0)
(10.18030780569176 0 0)
(7.40821755606217 0 0)
(4.831776832071417 0 0)
(4.183746142528758 0 0)
(6.771861247521238 0 0)
(12.69069086840941 0 0)
(21.97393416072446 0 0)
(30.46045623635818 0 0)
(36.94707624929762 0 0)
(41.04274992545628 0 0)
(39.57530038509427 0 0)
(29.94449438272363 0 0)
(13.58097351331258 0 0)
(3.888080991261177 0 0)
(-1.227766649890969 0 0)
(-0.8474860854328042 0 0)
(4.162163858743572 0 0)
(13.02720048974739 0 0)
(24.28343828003234 0 0)
(34.46194964888485 0 0)
(40.91405091196438 0 0)
(43.50313756656626 0 0)
(38.87290846297544 0 0)
(26.22023309617016 0 0)
(11.53246009188126 0 0)
(5.067930072015378 0 0)
(2.532518151961502 0 0)
(5.20447738411737 0 0)
(11.76184426108555 0 0)
(21.75884486372465 0 0)
(30.51303092389509 0 0)
(34.51706510085321 0 0)
(35.09081806766395 0 0)
(30.67744353158732 0 0)
(20.61717788506255 0 0)
(13.28120973100924 0 0)
)
;

boundaryField
{
    inlet
    {
        type            zeroGradient;
    }
    outlet
    {
        type            pressureInletOutletVelocity;
        value           uniform (13.28120973100924 0 0);
    }
    frontAndBack
    {
        type            empty;
    }
}


// ************************************************************************* //
