/*--------------------------------*- C++ -*----------------------------------*\
| =========                 |                                                 |
| \\      /  F ield         | OpenFOAM: The Open Source CFD Toolbox           |
|  \\    /   O peration     | Version:  v2012                                 |
|   \\  /    A nd           | Website:  www.openfoam.com                      |
|    \\/     M anipulation  |                                                 |
\*---------------------------------------------------------------------------*/
FoamFile
{
    version     2.0;
    format      ascii;
    class       volScalarField;
    location    "0.013";
    object      T;
}
// * * * * * * * * * * * * * * * * * * * * * * * * * * * * * * * * * * * * * //

dimensions      [0 0 0 1 0 0 0];


internalField   nonuniform List<scalar> 
1000
(
299.9810755454075
299.9847130750641
299.979849011647
299.9714886131372
299.9699585291032
299.966083619661
299.9625945760599
299.9627504580347
299.9584072195455
299.9582632647636
299.9587208485952
299.9589823642444
299.9601693420522
299.9616051833035
299.9632097009794
299.9673799642003
299.9701981705894
299.9748037368596
299.9801506984224
299.9843783025734
299.9900406601897
299.9954363104064
300.0010018185266
300.0067161404883
300.0120526156745
300.0175961330318
300.0225011825037
300.027111111515
300.0314298834488
300.0348547814198
300.0395316586208
300.0404250714253
300.040596439256
300.0406314993609
300.0398488215167
300.0396109249577
300.0385678464438
300.0359188781126
300.0348737256271
300.030705589763
300.0265171199262
300.0233222633324
300.0164108679919
300.0116381779172
300.0062564739816
299.9995738278311
299.9946961864972
299.988953573658
299.9833534204475
299.9784693972416
299.973453688941
299.9691104846335
299.9644425150399
299.9602341172673
299.9599523161888
299.9600184135366
299.9601591772128
299.9601666677614
299.9614632011213
299.96186178177
299.9634547908345
299.9664867997486
299.9678844913086
299.9724294863349
299.9766731328621
299.9807231327762
299.9872363222001
299.9923231636913
299.9983768115302
300.0044978104668
300.009858532385
300.0155715863769
300.0206463472051
300.0255948766666
300.0299452169609
300.0352686529851
300.0394837140054
300.0396307817477
300.0396841157955
300.0396625535303
300.0388972914265
300.0387989947204
300.0377488676535
300.0358131412037
300.0348344336813
300.0315366783063
300.0284048866864
300.0251818220876
300.019670976728
300.0152534468525
300.0094538134742
300.0032904415643
299.9975831388994
299.9912151898822
299.9855309170964
299.9800029578683
299.9745109114937
299.9700187685176
299.9641375193444
299.9607983349637
299.9607466659666
299.9608290384188
299.9608432892865
299.9614737751364
299.9618772440116
299.9624966490434
299.9643554526473
299.96554114178
299.9681994833724
299.9711562845611
299.974318743701
299.9792506758301
299.9834691460596
299.9890829609865
299.9951917393223
300.0007482995578
300.0072748536218
300.0131312039989
300.0188925047786
300.0245706484587
300.0291928440163
300.0350496726013
300.0388085445898
300.0390164667271
300.0389002246596
300.0385079695332
300.0385396531473
300.0378681501806
300.0366945076477
300.0363622209279
300.0342538982103
300.0320231025071
300.0303830665308
300.0259073398327
300.0224111213366
300.0182957483765
300.0119094421125
300.0070258871544
300.000800778853
299.9940571730857
299.9882264119163
299.9818067595922
299.9759657806814
299.9707975570714
299.9643200203651
299.9611624553315
299.9610733287547
299.9612174542783
299.9616686561817
299.9619284391565
299.9625283184427
299.9636239267242
299.9644894458025
299.9660532820112
299.9685058497573
299.9702018115975
299.9740576523021
299.9775988868494
299.9813832724069
299.9870106207997
299.9915899018214
299.9975954734508
300.0036184244789
300.0093091307124
300.0155090262495
300.0211871485815
300.0268568351585
300.033304285163
300.0377410258494
300.0380895440226
300.0382411801879
300.0384188055838
300.0385413338127
300.0382231164546
300.0379178034028
300.0371910576416
300.0359412762162
300.0345766749626
300.0320009302735
300.0292459030729
300.0256655175086
300.0211282763819
300.0163905135952
300.0103999461812
300.0044898158504
299.9981354994226
299.9909648438895
299.9844085851202
299.9774870052764
299.970611375908
299.9633667596757
299.9587165216877
299.9570314750738
299.9559869713089
299.9554590192085
299.9551053957522
299.9548243490711
299.9547781363994
299.9550894762752
299.9555292198349
299.9566134235535
299.9585816300909
299.9610635954015
299.9647273684462
299.9684564623325
299.9735969825146
299.9796175231929
299.985253217428
299.9926041088523
299.9999498465776
300.0072858726883
300.0150473490715
300.0231647561472
300.0299075913426
300.0370448696722
300.0399870749441
300.043045237727
300.0440939073862
300.0448834585656
300.0452639864591
300.0454075701826
300.0453027237351
300.0445855429573
300.0435204486274
300.0418881404163
300.0394481531147
300.0362788264932
300.0325047585148
300.0270880102554
300.0215533844165
300.0157515883453
300.0084712596047
300.0013765805097
299.9941029460189
299.9864515056824
299.979238612049
299.9725242559493
299.9652082660606
299.9620838073801
299.9601575455994
299.9585187241785
299.9579170014076
299.9579870966154
299.9578679876863
299.9581583045556
299.9588485066903
299.9592632823915
299.9605838365558
299.9628958372982
299.9649023502264
299.9680265765851
299.9728886799276
299.9778018805038
299.9837957121738
299.9904532410944
299.9970087429175
300.0045744834458
300.0123574076335
300.0191330172541
300.027010745008
300.034409082283
300.0390544597008
300.0422735288548
300.0443444664605
300.0454834671048
300.0458688706535
300.0458714331352
300.0453932748193
300.0444129551142
300.0436108078777
300.0418778335984
300.0394116287027
300.0372866546927
300.0335216858865
300.0289223744689
300.0245716335795
300.0183545117092
300.0116679809893
300.0048411721249
299.9976528383735
299.9901609492859
299.9826957347227
299.9758636918511
299.9688193068829
299.9633361679265
299.9609254100696
299.959080283445
299.9581115672587
299.9576870890098
299.9580933962909
299.9581849326987
299.9591442009578
299.9602604175342
299.9612336189702
299.9631096115435
299.9656686877112
299.9680511492251
299.9716249653738
299.9764060138243
299.9815244774974
299.9874017584967
299.9945071598416
300.001737457617
300.0088996094684
300.0164849132059
300.0244753424172
300.0303687720917
300.0378901209708
300.0409213504052
300.0442694722458
300.0454335538039
300.0460576388339
300.0461030909056
300.0459107847046
300.0451566249529
300.0433942094386
300.0419552573592
300.0401511367863
300.0369822836964
300.0341465040756
300.0307557157923
300.0256733491451
300.0204958527225
300.0149300046139
300.0079220445148
300.0009976364647
299.9934389688831
299.9861688784465
299.9790186564366
299.972283887548
299.9652881314506
299.9621026436598
299.9595415192257
299.9582034281763
299.9578941743491
299.9578639775597
299.9583196333369
299.9592141005338
299.960201570863
299.9615580462745
299.9636295155247
299.9657257995163
299.9682270981
299.9714078442257
299.9753987655221
299.9802771428535
299.9857561608754
299.992135280374
299.998485501779
300.0062500171883
300.0136759736291
300.0208139922894
300.0281915616737
300.0349149368888
300.0402521831531
300.0432745958823
300.0454719339731
300.046547001026
300.046769958551
300.0466561348401
300.0458572212242
300.0445897867114
300.0432111380595
300.0408275466598
300.0380792179193
300.0354362866537
300.03155544275
300.0274483348008
300.022905301595
300.0169840795584
300.0111999521862
300.0045653170644
299.9972296869931
299.9900728297857
299.9825619386053
299.9752050122018
299.969225668843
299.9630153196142
299.9607923761708
299.9588349235404
299.9575762035727
299.9575295018644
299.9582626721302
299.9589627453335
299.9596516539622
299.9614600194735
299.9631462558248
299.9652160442812
299.9681610317938
299.9709281745146
299.9741538005386
299.978863811898
299.9838950613189
299.9891723593307
299.995702554586
300.0026889890595
300.0098261615556
300.0171174642428
300.0246782028934
300.0312450627899
300.0379869777487
300.0417667970244
300.0444512299916
300.0464069627612
300.0467852218483
300.046461399407
300.0462492305268
300.0451508784242
300.0431827014833
300.0417495261041
300.039074782541
300.0356300359465
300.0329930142028
300.0290510793745
300.0241783590397
300.0194504641966
300.0139243989266
300.0073556091006
300.0011312794837
299.9937907131014
299.9866979035118
299.9796510278669
299.9728903077787
299.9656134078131
299.9625051673535
299.9598637471773
299.9584675124688
299.9582149044346
299.9583253351391
299.9587805458498
299.9600425000547
299.961370762641
299.9629216165808
299.9654766429064
299.9678611140407
299.9706764255372
299.9739724230446
299.9777434829432
299.9826490458329
299.9876326509582
299.9933520812089
299.9995716352514
300.0067825910996
300.0138660060389
300.0209502420132
300.0282836521715
300.0352209821465
300.0403533147488
300.0437766360255
300.0458880153047
300.0467986307556
300.0471156355594
300.0467356942605
300.0455695192592
300.0442260878366
300.042483230701
300.0395310960114
300.0368517998865
300.0338302074659
300.0293303326507
300.0253350181314
300.0208462910743
300.0148783045327
300.009374591578
300.0032160971663
299.9962772468305
299.9895265322397
299.9821557869496
299.9752394391256
299.9691471836223
299.9627021185582
299.9604470615937
299.9584357669465
299.9571370292967
299.9572997425421
299.9580098487273
299.9589896269943
299.9600962585542
299.9621460366264
299.9642026381832
299.9666598799952
299.9700293719623
299.9728859008404
299.9764724334818
299.9811011185207
299.9855686648701
299.9907346994092
299.9969897118291
300.0030226609541
300.010264233375
300.0169772408099
300.0238794059027
300.0308904641066
300.037723199609
300.0412954903075
300.044925022745
300.0464925198779
300.0469853622591
300.0467683532492
300.0462465931636
300.0450147349454
300.043072830021
300.040527626745
300.0380502228355
300.0344365458866
300.0305663067057
300.0267314729486
300.0217527017199
300.0166599474009
300.0114133275347
300.0050021704077
299.9988712733395
299.9921448298856
299.9848396527295
299.9786218458356
299.971607624403
299.9649369404768
299.960920832843
299.9585302201242
299.9566606787909
299.9565832056605
299.956743384813
299.9575148071533
299.9591563784878
299.9605261222196
299.9627234933243
299.965492045088
299.9679289033622
299.9714067571306
299.9747407701396
299.9784707336441
299.9834274371548
299.9881306511766
299.9934134201159
299.9993663832218
300.0059957554451
300.0127036487353
300.0194847187242
300.0266659233391
300.0328220006772
300.0389391819479
300.0420754247416
300.0448827841858
300.0460291409576
300.0462987085373
300.0458841752979
300.0445919379732
300.0430126223138
300.0408672032779
300.0376654745368
300.0347890711382
300.0311531403452
300.0264455369273
300.0225267890386
300.0173825447597
300.011582646852
300.0065037746414
300.0001711663729
299.9934018511705
299.9871332259145
299.9803020700364
299.9728719405512
299.9678426205263
299.9609820267075
299.9588085334518
299.9559641706593
299.9550385899107
299.9547824992497
299.9556811825624
299.9571864090083
299.9581479098011
299.9600902141869
299.9630688340481
299.96531995477
299.9687364755713
299.9724465298834
299.9756530378536
299.9803902143013
299.9850747599521
299.9898757902798
299.9961184090114
300.00182413585
300.0085044686821
300.0152373783455
300.0215303512273
300.0286528965194
300.0350036215951
300.0391625612906
300.0429234343082
300.044957883847
300.0456998559147
300.0455511512716
300.0449499191052
300.0436792838981
300.041551020189
300.0388755283735
300.0358823846719
300.0317970095768
300.0278913062574
300.0237490894361
300.0183077010673
300.0136641056261
300.0081452026574
300.001829440852
299.9961702874858
299.9895060145105
299.982974056683
299.9767099802736
299.9701769846048
299.964201487828
299.9598194917551
299.9573256353412
299.9552647119624
299.9549199174282
299.9551498501746
299.9560326622491
299.9578244660087
299.9594534089659
299.9620464860773
299.9650933238711
299.9677127205038
299.9715723523672
299.9755399501382
299.9790435830074
299.9836708520849
299.988859775692
299.9936642666098
299.9991729429786
300.0057267207658
300.011641102818
300.0177801678855
300.0247335681728
300.0308511081421
300.0366212789703
300.0401440053216
300.0428423889131
300.0448385069981
300.0451235242175
300.0449079720314
300.0437633913036
300.0423974476352
300.0393768457556
300.0367666832482
300.0327816547482
300.0285530977257
300.0243413756232
300.0191527994574
300.0142467475018
300.0087219772191
300.0031611591784
299.9973692435121
299.9907341867126
299.984692238872
299.9782856583076
299.971766126803
299.9660774743825
299.9602472022448
299.9570324063473
299.9546621243192
299.9530075870761
299.9528622394052
299.9532603395091
299.9549656101294
299.9561820788301
299.9583827789425
299.9618377265269
299.9645593639815
299.9683123102008
299.9722678685853
299.9761421165935
299.9805199741778
299.9851080410241
299.9903082985909
299.9954963141593
300.0010842006384
300.0074655249683
300.0131953862817
300.0196101194685
300.0257480003311
300.0321112213372
300.036560796835
300.0401854599805
300.0423455733624
300.0438092235905
300.0439879327654
300.0433925178022
300.0422312005239
300.0401675220589
300.0370932176187
300.0335965128199
300.0297198074476
300.0249743626705
300.020246188049
300.0151237865803
300.0095815396751
300.0041404168038
299.997856655583
299.9920590826261
299.9859259659625
299.979361160551
299.9734111969598
299.96748705456
299.961652941253
299.9570474312846
299.9549027554153
299.9521336663915
299.9511946771864
299.9516810749885
299.9523484449476
299.9540978315284
299.9557741481929
299.9591620688282
299.9621336994907
299.9649874730623
299.9697082389538
299.9736283985913
299.9770810246525
299.9823072983498
299.987024552326
299.9914408772078
299.997074401356
300.0027292083162
300.0083830550659
300.014576330354
300.0209595963775
300.0270677219324
300.031913375012
300.036381381226
300.0397510056135
300.0412821235392
300.0423876364373
300.042454113817
300.0418520737138
300.0400724365039
300.0374775299171
300.0349314783684
300.0303226563748
300.0257680540203
300.0211651949219
300.0153800779273
300.0101014980752
300.0043014828851
299.9982438750931
299.9923486710771
299.9859546896176
299.9799220656909
299.9741945779454
299.9680623972662
299.962540241561
299.9575334017752
299.9542281283274
299.9514078848139
299.9501608595504
299.9490559918901
299.9499472823013
299.9511556953983
299.9527816246263
299.954990409285
299.9586529564096
299.9614799668657
299.9655279209055
299.970196087861
299.9740970178361
299.9786272866777
299.9835349393666
299.9883903932975
299.993244186077
299.9983431091104
300.0042084606339
300.0098754502617
300.0152406271546
300.0213785889536
300.0272114438654
300.0318214704902
300.0355052035874
300.0383028477794
300.0399875754134
300.0404994556128
300.0404964219826
300.0395445937775
300.0371177080406
300.0346589512725
300.0312460401558
300.0260162178288
300.0215544213945
300.0162492998324
300.0103428490863
300.0048594441754
299.9984428799235
299.9922778637621
299.9864483773308
299.9799160747487
299.9738164768049
299.9685434167197
299.9624380896968
299.9570260430103
299.9533377821189
299.9506240607915
299.9482189034213
299.9469137925839
299.9469653381207
299.9475170434118
299.9493529032839
299.950935499133
299.9536636525905
299.9574525624072
299.9607753033548
299.9650560092931
299.9703689263085
299.9742506930944
299.9789778298383
299.9844226993278
299.9885401749469
299.9938349924868
299.9991351745838
300.004246002949
300.0098094125849
300.0152884828458
300.021313195771
300.0256965707463
300.0303319651843
300.0336179626297
300.0360327874826
300.0376372788987
300.0381496949975
300.0377148573839
300.0361914505761
300.0342315877567
300.0302720646125
300.026511856402
300.021716746117
300.0156174198936
300.0104707999807
300.0047809219381
299.9980874907055
299.9919076598068
299.9858227618726
299.9794541913001
299.9736510302793
299.9679179356051
299.9618010935611
299.9571952168754
299.9522919383617
299.9493542982815
299.9466175766916
299.9452867628588
299.9443532527961
299.9444158312241
299.9457093885606
299.9474803589508
299.9494365232644
299.9525953584658
299.9561187453111
299.9600092981764
299.9646187471795
299.969660478299
299.9744885558671
299.9794167250985
299.9848005666988
299.9895978182677
299.9946277782667
299.9997856349504
300.0045934907812
300.0097463828711
300.0147495967612
300.0200795759684
300.0243791592735
300.028306102338
300.031560084754
300.0336279061319
300.0350735099765
300.0355399633207
300.03459083064
300.0327181304537
300.0300026278385
300.025899946733
300.0213714937171
300.0159294710148
300.0100041357539
300.0041953583306
299.9980035380497
299.9917144852375
299.985342099907
299.9795545867697
299.9736384825804
299.9675415144488
299.9627120453999
299.9572143687538
299.9523489069654
299.9488779526116
299.9467158439669
299.9442561297123
299.9430328504263
299.9431274415775
299.9436746654975
299.9453434828517
299.947144083148
299.949563657794
299.9528321338503
299.9566780466351
299.9609244747645
299.9658769931983
299.9706565061642
299.9758226794521
299.9811333842042
299.9859416805313
299.991526083966
299.9966026670088
300.0012989771708
300.0064203232647
300.0115506414362
300.0155205818603
300.020283740415
300.0234678762546
300.0269112760746
300.0295478759024
300.031424097218
300.0325331086663
300.0327328509106
300.0318682298059
300.0303119178374
300.0268730847882
300.0231702425686
300.0178386453262
300.0114666469323
300.0058759482927
299.999120679682
299.9922517615624
299.9857266225648
299.9788581495291
299.9731306564805
299.966696458163
299.9610353410043
299.9563422884779
299.950994289313
299.9472810972363
299.9444079787825
299.9425616622754
299.940124709739
299.9399032036939
299.9403249212113
299.9410408201965
299.9428746996218
299.945124754756
299.9478618875276
299.9515913740163
299.9555962219424
299.9602902726849
299.9652055916017
299.9703528875834
299.9758941372344
299.9809255389698
299.9862659863475
299.9914882520945
299.9967854496688
300.0016175874661
300.0063442808524
300.0109710572611
300.0154583274494
300.018480717918
300.021934404483
300.0242300917623
300.0262364222361
300.0276191622111
300.0283687574078
300.0282060224872
300.0272372845868
300.0260762634141
300.0222951694875
300.0178626816519
300.0126178547044
300.005877499076
299.998988160278
299.9923133888432
299.9853097315563
299.9785512978087
299.9727249050077
299.9666996421323
299.9608703771651
299.9561703112655
299.9514252720676
299.9467176416366
299.9441607816429
299.9414329878829
299.9393101059763
299.9378522626228
299.9378951651179
299.9386667428924
299.9390787757708
299.9410692327761
299.9437765471977
299.9460304267292
299.9495412325849
299.953877345273
299.9583313699854
299.9639073785842
299.9727603651581
299.9780425174425
299.9886955554605
299.9946697190479
)
;

boundaryField
{
    inlet
    {
        type            fixedValue;
        value           uniform 300;
    }
    outlet
    {
        type            inletOutlet;
        inletValue      uniform 300;
        value           uniform 299.9979089842552;
    }
    frontAndBack
    {
        type            empty;
    }
}


// ************************************************************************* //
