/*--------------------------------*- C++ -*----------------------------------*\
| =========                 |                                                 |
| \\      /  F ield         | OpenFOAM: The Open Source CFD Toolbox           |
|  \\    /   O peration     | Version:  v2012                                 |
|   \\  /    A nd           | Website:  www.openfoam.com                      |
|    \\/     M anipulation  |                                                 |
\*---------------------------------------------------------------------------*/
FoamFile
{
    version     2.0;
    format      ascii;
    class       volVectorField;
    location    "0.013";
    object      U;
}
// * * * * * * * * * * * * * * * * * * * * * * * * * * * * * * * * * * * * * //

dimensions      [0 1 -1 0 0 0 0];


internalField   nonuniform List<vector> 
1000
(
(-0.02034495227103883 0 0)
(-0.0487073650899057 0 0)
(-0.04824602143719402 0 0)
(-0.07483532562836889 0 0)
(-0.08184616952727167 0 0)
(-0.09407548460401219 0 0)
(-0.1051958007455893 0 0)
(-0.1060994805044209 0 0)
(-0.1186910640581721 0 0)
(-0.1194975497918571 0 0)
(-0.1188642543461308 0 0)
(-0.1187787042611299 0 0)
(-0.1157691079772106 0 0)
(-0.1118279786037438 0 0)
(-0.1073001679078174 0 0)
(-0.09523647466211953 0 0)
(-0.08707128360046285 0 0)
(-0.07367393986585234 0 0)
(-0.05807194866283665 0 0)
(-0.04566295762790657 0 0)
(-0.02908895703898425 0 0)
(-0.01329878992271126 0 0)
(0.002938738650810777 0 0)
(0.01956538805495726 0 0)
(0.03507570607137177 0 0)
(0.05114784439086952 0 0)
(0.06534701493733709 0 0)
(0.07862420165912277 0 0)
(0.0911275182022495 0 0)
(0.1009913076854122 0 0)
(0.1144332525959451 0 0)
(0.1169679689523725 0 0)
(0.1174311108552008 0 0)
(0.1174534340841624 0 0)
(0.1151662526729216 0 0)
(0.1144630695529639 0 0)
(0.1114671585320479 0 0)
(0.1038143909534759 0 0)
(0.1008121385412245 0 0)
(0.08877254897708087 0 0)
(0.07666889324997642 0 0)
(0.06744248334266074 0 0)
(0.04747203045475245 0 0)
(0.03364735957084161 0 0)
(0.01814254494087484 0 0)
(-0.001261845261039355 0 0)
(-0.01535309052064778 0 0)
(-0.03192105263467427 0 0)
(-0.04813345720124818 0 0)
(-0.06223432442985381 0 0)
(-0.07678222484071634 0 0)
(-0.08944289805496013 0 0)
(-0.1027807207917305 0 0)
(-0.1150585469199187 0 0)
(-0.1158590615897895 0 0)
(-0.1156718352163108 0 0)
(-0.1152844122887702 0 0)
(-0.115267105432244 0 0)
(-0.1115010073226474 0 0)
(-0.1103438850951305 0 0)
(-0.1057174720310231 0 0)
(-0.09691243624683007 0 0)
(-0.09289510717046398 0 0)
(-0.0797295240990616 0 0)
(-0.06744706914741937 0 0)
(-0.05574894738863617 0 0)
(-0.03683039098731511 0 0)
(-0.02231142678710156 0 0)
(-0.004779492998194614 0 0)
(0.01302716734863465 0 0)
(0.02843030330185714 0 0)
(0.04501461393081242 0 0)
(0.05964154758630413 0 0)
(0.07369770833017733 0 0)
(0.08765535296389458 0 0)
(0.1014565138368924 0 0)
(0.1143156935473351 0 0)
(0.1146859103008359 0 0)
(0.1147171316993654 0 0)
(0.1147072999364986 0 0)
(0.1124478088295828 0 0)
(0.1121333690176292 0 0)
(0.1090458554326821 0 0)
(0.1034078723179311 0 0)
(0.1008014495302411 0 0)
(0.09130711351471597 0 0)
(0.08220603216666707 0 0)
(0.07306697979105897 0 0)
(0.05702810075727676 0 0)
(0.04414151635410553 0 0)
(0.02734164636666422 0 0)
(0.009405573011495303 0 0)
(-0.00732084366943112 0 0)
(-0.02554365499149628 0 0)
(-0.04210512324184663 0 0)
(-0.05815385444868357 0 0)
(-0.07314585881034799 0 0)
(-0.08666152526465895 0 0)
(-0.1034826256671858 0 0)
(-0.113075360189034 0 0)
(-0.1132934687655269 0 0)
(-0.1132512466171185 0 0)
(-0.1132840286982706 0 0)
(-0.1116633745997322 0 0)
(-0.1107801436129813 0 0)
(-0.1089852624767571 0 0)
(-0.1035623384920819 0 0)
(-0.1000711824834848 0 0)
(-0.09193858628082256 0 0)
(-0.0831140654932504 0 0)
(-0.07390983820097582 0 0)
(-0.05970787601169584 0 0)
(-0.04690441660136854 0 0)
(-0.03103372857468906 0 0)
(-0.01410545315272312 0 0)
(0.002431684993573837 0 0)
(0.02067811416224303 0 0)
(0.03733541612371552 0 0)
(0.05399315603328428 0 0)
(0.07002037929040687 0 0)
(0.08377325992468228 0 0)
(0.1012455362734699 0 0)
(0.1119955641022358 0 0)
(0.113113602983598 0 0)
(0.113518167437468 0 0)
(0.1124879623080039 0 0)
(0.1126545922159042 0 0)
(0.1106797181767493 0 0)
(0.1069182976389131 0 0)
(0.1055639904223579 0 0)
(0.09893084077485027 0 0)
(0.09167473153618318 0 0)
(0.08666679501460436 0 0)
(0.07338024642870897 0 0)
(0.0629677573146418 0 0)
(0.05123331297767691 0 0)
(0.03340155145759044 0 0)
(0.01986450437931648 0 0)
(0.002166076512729691 0 0)
(-0.01599799052569053 0 0)
(-0.03234080770386211 0 0)
(-0.05058092336402176 0 0)
(-0.06733011680957021 0 0)
(-0.08212084498296128 0 0)
(-0.1021156975734776 0 0)
(-0.1114129553000229 0 0)
(-0.1120114541727583 0 0)
(-0.1124819921297635 0 0)
(-0.1119739139363705 0 0)
(-0.1117925393410323 0 0)
(-0.1103078077312201 0 0)
(-0.1073089889170546 0 0)
(-0.1048849300752736 0 0)
(-0.1003440862952806 0 0)
(-0.09275483240750503 0 0)
(-0.08778212372863468 0 0)
(-0.0765109477815977 0 0)
(-0.06495611868531709 0 0)
(-0.05480247122141003 0 0)
(-0.03688180305270553 0 0)
(-0.02251789319300888 0 0)
(-0.006544297540822011 0 0)
(0.01349856112847607 0 0)
(0.02995476186686386 0 0)
(0.04870911574403498 0 0)
(0.06697403290487669 0 0)
(0.08175555304192213 0 0)
(0.1010330931197364 0 0)
(0.1131280471388291 0 0)
(0.1137826716365029 0 0)
(0.1127706941166336 0 0)
(0.1113491812293499 0 0)
(0.1097829029203731 0 0)
(0.1067813193116789 0 0)
(0.1036154420797292 0 0)
(0.09971494852123958 0 0)
(0.09404211085703143 0 0)
(0.08859525526671118 0 0)
(0.08070534919968975 0 0)
(0.07227069507513427 0 0)
(0.0624406429208117 0 0)
(0.05032086173797943 0 0)
(0.03839129292435699 0 0)
(0.02331328249435533 0 0)
(0.008161152613650823 0 0)
(-0.007599307470988591 0 0)
(-0.02472333348285874 0 0)
(-0.0410685644432618 0 0)
(-0.0580167847549012 0 0)
(-0.07250856723556209 0 0)
(-0.09055943152347347 0 0)
(-0.0995615376830796 0 0)
(-0.1001654301690722 0 0)
(-0.09788510102714376 0 0)
(-0.09426874899767938 0 0)
(-0.09035083014170429 0 0)
(-0.08565764111716651 0 0)
(-0.08044993032157975 0 0)
(-0.07458138242774053 0 0)
(-0.06856717742145946 0 0)
(-0.06229699229322819 0 0)
(-0.05368062874180381 0 0)
(-0.04486922932522906 0 0)
(-0.03555938182855931 0 0)
(-0.0246862498285872 0 0)
(-0.01217552841372091 0 0)
(-0.0003214149612854494 0 0)
(0.01336801977712969 0 0)
(0.02798947824834492 0 0)
(0.04096165703295753 0 0)
(0.05563271452407585 0 0)
(0.07011140578491563 0 0)
(0.08015248004209188 0 0)
(0.09567661248098201 0 0)
(0.1042362186185173 0 0)
(0.1045157035892262 0 0)
(0.1035134486305061 0 0)
(0.09901226472143028 0 0)
(0.09235305364633357 0 0)
(0.08581467307026552 0 0)
(0.07999533906638358 0 0)
(0.07408534727574415 0 0)
(0.06742462347426352 0 0)
(0.06144333221634318 0 0)
(0.05412654673399967 0 0)
(0.04642260302291387 0 0)
(0.03898587122503241 0 0)
(0.02783168863959694 0 0)
(0.01684861295401495 0 0)
(0.006138528924685602 0 0)
(-0.00945365111047866 0 0)
(-0.02241296204543129 0 0)
(-0.03625079083598412 0 0)
(-0.05269383426748944 0 0)
(-0.06752376555164964 0 0)
(-0.08276446352277914 0 0)
(-0.09672208450114905 0 0)
(-0.1087798946390815 0 0)
(-0.1125013275095363 0 0)
(-0.1112421370905007 0 0)
(-0.108386732559774 0 0)
(-0.1036527416187862 0 0)
(-0.09714410234311747 0 0)
(-0.0899929587668151 0 0)
(-0.08250212766920546 0 0)
(-0.07487883914631392 0 0)
(-0.06767283601372823 0 0)
(-0.06016446113764261 0 0)
(-0.050913940497605 0 0)
(-0.04220409716628801 0 0)
(-0.03208217274836345 0 0)
(-0.02000200307164441 0 0)
(-0.007904674466690744 0 0)
(0.004685180358839615 0 0)
(0.01798954606524001 0 0)
(0.03302529123990906 0 0)
(0.0472027811768463 0 0)
(0.06013472995185458 0 0)
(0.07529832676875371 0 0)
(0.08566048903286645 0 0)
(0.09814595378594737 0 0)
(0.1037556072948202 0 0)
(0.1042171304685572 0 0)
(0.1011724211623154 0 0)
(0.09567760046739363 0 0)
(0.08963600948740655 0 0)
(0.08262709415804859 0 0)
(0.07512673381439822 0 0)
(0.06813491829266391 0 0)
(0.06089212276938023 0 0)
(0.0535278362237735 0 0)
(0.04647026335153242 0 0)
(0.03947351746220759 0 0)
(0.03064072155430957 0 0)
(0.02046847171519491 0 0)
(0.009268150351051156 0 0)
(-0.002815175242194547 0 0)
(-0.0166166850656185 0 0)
(-0.0306205104698977 0 0)
(-0.04565439982569938 0 0)
(-0.06138084898071958 0 0)
(-0.07522834334225866 0 0)
(-0.0891994851389407 0 0)
(-0.1027644873631467 0 0)
(-0.1121340101410076 0 0)
(-0.1116290460522228 0 0)
(-0.111841873988401 0 0)
(-0.1074517347353205 0 0)
(-0.1007489086034477 0 0)
(-0.09392243829993487 0 0)
(-0.0873317591139684 0 0)
(-0.07864978247571661 0 0)
(-0.0703279579823753 0 0)
(-0.0625818771959028 0 0)
(-0.05352010137184451 0 0)
(-0.04428353377654472 0 0)
(-0.03580197428785285 0 0)
(-0.02460341671797787 0 0)
(-0.01430082510136139 0 0)
(-0.002025421509406821 0 0)
(0.0130952155306394 0 0)
(0.02399538684657566 0 0)
(0.03850970194306975 0 0)
(0.05435151499822604 0 0)
(0.06586390303510839 0 0)
(0.07719939679804848 0 0)
(0.09142651799343902 0 0)
(0.09972293718442973 0 0)
(0.1012995693262126 0 0)
(0.1012533856266288 0 0)
(0.09790063140853762 0 0)
(0.0923218677326851 0 0)
(0.08442366975429005 0 0)
(0.07832826536089986 0 0)
(0.07185879189982837 0 0)
(0.06285754729173 0 0)
(0.05427346646604761 0 0)
(0.04844717523712374 0 0)
(0.039461090146428 0 0)
(0.03047667412489136 0 0)
(0.0237458786182647 0 0)
(0.0128297996206202 0 0)
(0.001167835086056801 0 0)
(-0.009772889957969587 0 0)
(-0.02357475463729759 0 0)
(-0.03866410371054604 0 0)
(-0.05198797646627167 0 0)
(-0.06839466486471504 0 0)
(-0.08250080009735643 0 0)
(-0.09478693460861022 0 0)
(-0.1067516550777221 0 0)
(-0.1110278425074055 0 0)
(-0.1120296899406154 0 0)
(-0.1101936594041867 0 0)
(-0.1040969389027222 0 0)
(-0.09847006298625945 0 0)
(-0.09104117487184797 0 0)
(-0.08281521960475782 0 0)
(-0.07450722041962185 0 0)
(-0.06597372207943167 0 0)
(-0.05657643879448942 0 0)
(-0.04761363959180114 0 0)
(-0.03779771878125635 0 0)
(-0.02805426385266607 0 0)
(-0.01867439987568265 0 0)
(-0.006759771142187693 0 0)
(0.004656263402084251 0 0)
(0.01665444961162957 0 0)
(0.03156784709966739 0 0)
(0.04374540883243238 0 0)
(0.05776605387949704 0 0)
(0.07082003824154509 0 0)
(0.08089193889605739 0 0)
(0.09293634332524299 0 0)
(0.09891113663392138 0 0)
(0.09956306145890255 0 0)
(0.09744075251639758 0 0)
(0.09342892668916801 0 0)
(0.08627523455070657 0 0)
(0.07976011041826511 0 0)
(0.07268260537350738 0 0)
(0.06453807752075297 0 0)
(0.05655394133063712 0 0)
(0.04851699150410296 0 0)
(0.03930664402926634 0 0)
(0.03138687829330207 0 0)
(0.02360393342716356 0 0)
(0.01309926012262753 0 0)
(0.003652667506916232 0 0)
(-0.006329954384990196 0 0)
(-0.01963016526230499 0 0)
(-0.0325093715215136 0 0)
(-0.04554310320482823 0 0)
(-0.06109491364917334 0 0)
(-0.07538115184633834 0 0)
(-0.08668889958812986 0 0)
(-0.1020859539566282 0 0)
(-0.1100424142783539 0 0)
(-0.111116293213353 0 0)
(-0.1097451297022049 0 0)
(-0.106797388623537 0 0)
(-0.1005223804292978 0 0)
(-0.09346118880856387 0 0)
(-0.08559029267163269 0 0)
(-0.0785000418085742 0 0)
(-0.06894729872212436 0 0)
(-0.05854331017615443 0 0)
(-0.04994596734101795 0 0)
(-0.04050004154194409 0 0)
(-0.03011639221098872 0 0)
(-0.01973856634918053 0 0)
(-0.009981157866344473 0 0)
(0.001066480068522856 0 0)
(0.01432825563015424 0 0)
(0.02422120820729903 0 0)
(0.03769571206866137 0 0)
(0.0518028172856567 0 0)
(0.06318784361467286 0 0)
(0.07606888121662062 0 0)
(0.08697234690259337 0 0)
(0.09631724219160574 0 0)
(0.09888612685015319 0 0)
(0.09805084755281677 0 0)
(0.0961735208650389 0 0)
(0.08995212873478479 0 0)
(0.08289708339023627 0 0)
(0.07601262789914652 0 0)
(0.06879581521790813 0 0)
(0.05966503191736804 0 0)
(0.05097436691864729 0 0)
(0.04259747411387114 0 0)
(0.03242957450734699 0 0)
(0.02373735904929585 0 0)
(0.01497991852417556 0 0)
(0.004471956033087989 0 0)
(-0.005940822657468483 0 0)
(-0.01643701596842227 0 0)
(-0.02843421166725028 0 0)
(-0.04237526381982377 0 0)
(-0.05436499417601958 0 0)
(-0.06945182141070964 0 0)
(-0.08310622548409954 0 0)
(-0.09497042045171966 0 0)
(-0.1062912231223073 0 0)
(-0.1109143421144926 0 0)
(-0.1119972329825381 0 0)
(-0.110045864445902 0 0)
(-0.103978903170383 0 0)
(-0.0980452584544801 0 0)
(-0.09093108478380206 0 0)
(-0.08236552311958237 0 0)
(-0.07362808501615672 0 0)
(-0.06473280039265809 0 0)
(-0.0541385247242255 0 0)
(-0.04420699772461704 0 0)
(-0.03371894434215229 0 0)
(-0.02322561466609094 0 0)
(-0.01318146519129842 0 0)
(-0.002028509852704919 0 0)
(0.008918554040572112 0 0)
(0.02010768432842841 0 0)
(0.03273663063857478 0 0)
(0.04385549261687476 0 0)
(0.05668873915921507 0 0)
(0.0687730548204879 0 0)
(0.07842405302027694 0 0)
(0.09010637420279102 0 0)
(0.09649843772871279 0 0)
(0.09750226263128703 0 0)
(0.09532736045077553 0 0)
(0.09115368608756076 0 0)
(0.08433324096929559 0 0)
(0.07793934950445644 0 0)
(0.07077171966315839 0 0)
(0.06248886145730838 0 0)
(0.05447947400417392 0 0)
(0.04552650893240069 0 0)
(0.03634420949240835 0 0)
(0.02727996769505932 0 0)
(0.01763172592529172 0 0)
(0.008671716537855947 0 0)
(-0.00185374480504698 0 0)
(-0.01161209505004722 0 0)
(-0.02252966772215374 0 0)
(-0.0350034662437063 0 0)
(-0.04648038878560814 0 0)
(-0.06059964449614345 0 0)
(-0.07305144551574091 0 0)
(-0.08427954928413692 0 0)
(-0.09882544096935875 0 0)
(-0.1065767520903902 0 0)
(-0.108840903596678 0 0)
(-0.1072252658612451 0 0)
(-0.10474016911541 0 0)
(-0.09882919676614335 0 0)
(-0.09210284047010851 0 0)
(-0.08414860422679014 0 0)
(-0.07674039903737152 0 0)
(-0.06662171624016495 0 0)
(-0.0568254251573467 0 0)
(-0.04732412290209193 0 0)
(-0.03574212229794889 0 0)
(-0.02566753096080022 0 0)
(-0.01565026694756102 0 0)
(-0.004015066632572548 0 0)
(0.006759387530922687 0 0)
(0.01791327958092152 0 0)
(0.02856002862680295 0 0)
(0.0402050535085081 0 0)
(0.05131670823571558 0 0)
(0.06349653976873583 0 0)
(0.07449997112906105 0 0)
(0.08382222095188369 0 0)
(0.09285232710993538 0 0)
(0.09643473640449594 0 0)
(0.09621435618881363 0 0)
(0.09437896690711223 0 0)
(0.08835595793374197 0 0)
(0.08099272473801622 0 0)
(0.07452995450161541 0 0)
(0.06701104779188916 0 0)
(0.05871604606170708 0 0)
(0.0488120268668988 0 0)
(0.04019136818845144 0 0)
(0.03040501682007401 0 0)
(0.02015512976602905 0 0)
(0.01167385408158004 0 0)
(0.002080276404936186 0 0)
(-0.009169445205303457 0 0)
(-0.02002941748056311 0 0)
(-0.02960390060460784 0 0)
(-0.04210776164075759 0 0)
(-0.05378874551015561 0 0)
(-0.06423750172345166 0 0)
(-0.07861844581558926 0 0)
(-0.08788662622170829 0 0)
(-0.09914291357612368 0 0)
(-0.1043219164361275 0 0)
(-0.1047263343571218 0 0)
(-0.1038536661887926 0 0)
(-0.09795437678469461 0 0)
(-0.0922162100094705 0 0)
(-0.08486514123445354 0 0)
(-0.07651049373674458 0 0)
(-0.06824908826114381 0 0)
(-0.0585211312838042 0 0)
(-0.04796203477857235 0 0)
(-0.03789536112962084 0 0)
(-0.02599910566926448 0 0)
(-0.01545205072904799 0 0)
(-0.005765096672820469 0 0)
(0.006542441452918366 0 0)
(0.01770412925506719 0 0)
(0.02743004559259482 0 0)
(0.03993002868901439 0 0)
(0.05030686994747372 0 0)
(0.06096278927488676 0 0)
(0.07197225618061259 0 0)
(0.0798442948045865 0 0)
(0.09119026838225611 0 0)
(0.09695710812571197 0 0)
(0.09712522693050088 0 0)
(0.09625924252278645 0 0)
(0.09239322908972331 0 0)
(0.08523431800082711 0 0)
(0.07880862976101055 0 0)
(0.07163869932892811 0 0)
(0.06406757697471771 0 0)
(0.05584398078776161 0 0)
(0.04601071472461867 0 0)
(0.03666377138595205 0 0)
(0.02677326880937054 0 0)
(0.01739426627949794 0 0)
(0.007719291714201841 0 0)
(-0.002538163545877688 0 0)
(-0.01241797821626187 0 0)
(-0.02353893554045429 0 0)
(-0.03460964337726868 0 0)
(-0.04418236929971398 0 0)
(-0.05653567077111867 0 0)
(-0.06869874073594584 0 0)
(-0.07599510215100512 0 0)
(-0.09022274207526441 0 0)
(-0.09705003119787138 0 0)
(-0.09892215314358517 0 0)
(-0.09930377990861211 0 0)
(-0.09552438699317219 0 0)
(-0.09012889536964279 0 0)
(-0.08308174017027736 0 0)
(-0.0750582549544917 0 0)
(-0.06790107821280035 0 0)
(-0.05854137714112004 0 0)
(-0.04686627980818901 0 0)
(-0.03754482470018219 0 0)
(-0.02606484980017716 0 0)
(-0.01346129212186258 0 0)
(-0.004233911052530141 0 0)
(0.006927181631095417 0 0)
(0.01959046462842523 0 0)
(0.0294757092726847 0 0)
(0.03863427634825704 0 0)
(0.05066539492140046 0 0)
(0.0604408985060551 0 0)
(0.06993364590302738 0 0)
(0.08079077183351072 0 0)
(0.08753289942579442 0 0)
(0.09557830124243073 0 0)
(0.09816412862905188 0 0)
(0.09786869150861977 0 0)
(0.0959179449040066 0 0)
(0.08969895917829279 0 0)
(0.08163273643273372 0 0)
(0.07490191599753285 0 0)
(0.0678615520738816 0 0)
(0.05927564795118263 0 0)
(0.04917982850819874 0 0)
(0.04165672612137273 0 0)
(0.03118517811978269 0 0)
(0.02017034234972355 0 0)
(0.01266400783999817 0 0)
(0.001639123180332421 0 0)
(-0.00925014526332507 0 0)
(-0.01889312813931239 0 0)
(-0.03001676822093343 0 0)
(-0.04091854887857611 0 0)
(-0.05062597491032146 0 0)
(-0.06234626558490602 0 0)
(-0.07286563932652293 0 0)
(-0.08136073678534508 0 0)
(-0.09142016294297857 0 0)
(-0.09590830592535211 0 0)
(-0.09661971170891336 0 0)
(-0.09679232151954995 0 0)
(-0.09105895745635798 0 0)
(-0.08511682059704162 0 0)
(-0.07906495826507501 0 0)
(-0.07038333943729257 0 0)
(-0.06184475472986947 0 0)
(-0.05277975125474395 0 0)
(-0.04159428568385373 0 0)
(-0.03107002631314833 0 0)
(-0.01961949019289663 0 0)
(-0.008535909551151565 0 0)
(0.002083685298598453 0 0)
(0.01453220267072312 0 0)
(0.0255539300735881 0 0)
(0.03579618339274571 0 0)
(0.04690026389481797 0 0)
(0.05674809297640054 0 0)
(0.06698297669921843 0 0)
(0.07673225420046285 0 0)
(0.08383607918114946 0 0)
(0.09165823398473957 0 0)
(0.09797685612427251 0 0)
(0.0987395647427715 0 0)
(0.09565509060236323 0 0)
(0.09346247855924983 0 0)
(0.08580921581001918 0 0)
(0.07967465582606956 0 0)
(0.07174775404144851 0 0)
(0.0642935240454596 0 0)
(0.05476587187014517 0 0)
(0.04696743245141381 0 0)
(0.03533677291298715 0 0)
(0.02681761181119123 0 0)
(0.01846348773825206 0 0)
(0.006278388516319767 0 0)
(-0.001352075856922468 0 0)
(-0.01221056470842023 0 0)
(-0.02394773985438389 0 0)
(-0.03283831535185936 0 0)
(-0.0428915782398108 0 0)
(-0.05397766106427805 0 0)
(-0.06326942922563457 0 0)
(-0.07224358870789266 0 0)
(-0.0810432992518611 0 0)
(-0.08833952617636505 0 0)
(-0.09045478706254745 0 0)
(-0.08880498202154359 0 0)
(-0.08807767647938347 0 0)
(-0.08179012433929093 0 0)
(-0.07549471117636282 0 0)
(-0.06670507013626858 0 0)
(-0.0599611619558508 0 0)
(-0.05090189699804607 0 0)
(-0.03919597685614953 0 0)
(-0.03039240112912859 0 0)
(-0.01807667787810377 0 0)
(-0.00590767905239948 0 0)
(0.00420282553492297 0 0)
(0.01585281548849873 0 0)
(0.028056924619679 0 0)
(0.03837440223679821 0 0)
(0.04855987680843778 0 0)
(0.05951400832084699 0 0)
(0.06871428951165301 0 0)
(0.07811390848336507 0 0)
(0.08613636952007123 0 0)
(0.09314573596342535 0 0)
(0.09894227884109169 0 0)
(0.1009908129361523 0 0)
(0.1004991686235248 0 0)
(0.09745350713680744 0 0)
(0.09181541327790244 0 0)
(0.08403868259059878 0 0)
(0.07572128859501116 0 0)
(0.06898838710509682 0 0)
(0.06087748397128872 0 0)
(0.05049778108387746 0 0)
(0.04254822484351042 0 0)
(0.03295659182831149 0 0)
(0.02096264588068642 0 0)
(0.01376101022580192 0 0)
(0.004746525045636587 0 0)
(-0.007594025896875604 0 0)
(-0.01619143197575341 0 0)
(-0.02503716073265216 0 0)
(-0.03635212181792565 0 0)
(-0.04457511775026895 0 0)
(-0.05365777851484862 0 0)
(-0.06408847062192721 0 0)
(-0.0716093086673832 0 0)
(-0.07967610722182711 0 0)
(-0.08332160049292862 0 0)
(-0.08366185205109236 0 0)
(-0.0825021266754235 0 0)
(-0.07896057956132864 0 0)
(-0.07199017510609627 0 0)
(-0.06591279075378009 0 0)
(-0.05700061588094094 0 0)
(-0.04983372707076757 0 0)
(-0.0389619115590707 0 0)
(-0.0286932139529994 0 0)
(-0.0193684183177956 0 0)
(-0.006036972058893615 0 0)
(0.004423150683789032 0 0)
(0.01574454612480254 0 0)
(0.02868371486376635 0 0)
(0.03864116804683002 0 0)
(0.05029877303442024 0 0)
(0.06090579397532481 0 0)
(0.06941197688754049 0 0)
(0.079291349982664 0 0)
(0.08793914818648681 0 0)
(0.09333139156460399 0 0)
(0.09974813706875396 0 0)
(0.1042626939687379 0 0)
(0.1045887721907598 0 0)
(0.1019296780541416 0 0)
(0.09703113046943793 0 0)
(0.09071115051631069 0 0)
(0.08208520482446993 0 0)
(0.07607800792640461 0 0)
(0.06720924584225274 0 0)
(0.05764206884140987 0 0)
(0.05013710354531707 0 0)
(0.03872262763592443 0 0)
(0.02965747221865254 0 0)
(0.0211460286140808 0 0)
(0.01085726533010578 0 0)
(0.002828991091957897 0 0)
(-0.007460936880166634 0 0)
(-0.01762146728735994 0 0)
(-0.02629634985434489 0 0)
(-0.03553193096609245 0 0)
(-0.04479915550887706 0 0)
(-0.05442979429734322 0 0)
(-0.06158996044974589 0 0)
(-0.06881920109796501 0 0)
(-0.07609337107225916 0 0)
(-0.07624539452927594 0 0)
(-0.07562701785681392 0 0)
(-0.07350732478393529 0 0)
(-0.06869431110207824 0 0)
(-0.06104033947619191 0 0)
(-0.05374263279309541 0 0)
(-0.04551761036775388 0 0)
(-0.03697468501396611 0 0)
(-0.02549769230796252 0 0)
(-0.01746207262529697 0 0)
(-0.005715045426628723 0 0)
(0.007131688881031495 0 0)
(0.0164931913702115 0 0)
(0.02887795397682051 0 0)
(0.04050568713244985 0 0)
(0.05023914145743478 0 0)
(0.0618988953491381 0 0)
(0.07287012767109174 0 0)
(0.08133093401880596 0 0)
(0.08978014422168187 0 0)
(0.09863579219501267 0 0)
(0.1032214098523892 0 0)
(0.1076170604705562 0 0)
(0.1096339403655621 0 0)
(0.1083276349883382 0 0)
(0.1040452625964357 0 0)
(0.09771167071603405 0 0)
(0.09048862826131661 0 0)
(0.08224620763831912 0 0)
(0.07356772434004041 0 0)
(0.06511962210065335 0 0)
(0.05664685974915947 0 0)
(0.04706906434467832 0 0)
(0.03685650290289155 0 0)
(0.02835976309006251 0 0)
(0.01853148027916557 0 0)
(0.01061653951405722 0 0)
(0.001633622665728078 0 0)
(-0.009029628839887741 0 0)
(-0.01646875151791513 0 0)
(-0.02586827619381431 0 0)
(-0.03429250657300862 0 0)
(-0.04128158763515963 0 0)
(-0.05151635454595459 0 0)
(-0.05679384409797773 0 0)
(-0.06296706805084373 0 0)
(-0.06605799363685494 0 0)
(-0.06747568459065111 0 0)
(-0.0643081317572681 0 0)
(-0.06230840470174329 0 0)
(-0.05446012063845957 0 0)
(-0.04828271596383933 0 0)
(-0.03949469059340738 0 0)
(-0.03102375301220815 0 0)
(-0.02195967219955589 0 0)
(-0.01097254333022803 0 0)
(-0.0009553517899757577 0 0)
(0.009922558236168834 0 0)
(0.02135008487096702 0 0)
(0.03240874496704171 0 0)
(0.04381837844343454 0 0)
(0.05489556140608375 0 0)
(0.06622768895210313 0 0)
(0.0764595521272602 0 0)
(0.08652606728904369 0 0)
(0.09537458892776843 0 0)
(0.1036554458785393 0 0)
(0.110229616482351 0 0)
(0.1145260622580402 0 0)
(0.1168815155092944 0 0)
(0.116890925811703 0 0)
(0.1141631809556897 0 0)
(0.1058677079545266 0 0)
(0.1008469036641489 0 0)
(0.09185261223570249 0 0)
(0.08298326787207429 0 0)
(0.07411393886111887 0 0)
(0.06592326284590763 0 0)
(0.05415443004404637 0 0)
(0.04744986232174517 0 0)
(0.03757941218799469 0 0)
(0.02720053035041559 0 0)
(0.02137883483294493 0 0)
(0.010939049412823 0 0)
(0.002318857658996181 0 0)
(-0.005320136670265104 0 0)
(-0.01442914656050794 0 0)
(-0.02166934167212358 0 0)
(-0.03044889167214996 0 0)
(-0.03862931295391991 0 0)
(-0.04384416133445458 0 0)
(-0.05190295067945062 0 0)
(-0.05636995623424342 0 0)
(-0.05600471468350566 0 0)
(-0.05620111876986732 0 0)
(-0.05471403308281254 0 0)
(-0.04859659078572626 0 0)
(-0.04298042402362368 0 0)
(-0.03409083850585732 0 0)
(-0.02558759450012236 0 0)
(-0.01671925292678478 0 0)
(-0.005744535394010807 0 0)
(0.003682759871115902 0 0)
(0.01469851090797289 0 0)
(0.02689500494211427 0 0)
(0.03661503097117252 0 0)
(0.04753635734984867 0 0)
(0.05901139438626232 0 0)
(0.06829033808466339 0 0)
(0.07947837748126046 0 0)
(0.08986632944536073 0 0)
(0.09890705309101695 0 0)
(0.1083332489445894 0 0)
(0.1154512785071963 0 0)
(0.1210978863997293 0 0)
(0.1249981680314926 0 0)
(0.1253863482180761 0 0)
(0.1234673265891055 0 0)
(0.1179245544094061 0 0)
(0.1104223900503433 0 0)
(0.1029926022699082 0 0)
(0.09342931714624776 0 0)
(0.08422533787066787 0 0)
(0.07463866592383181 0 0)
(0.06630617333579071 0 0)
(0.05629158432305968 0 0)
(0.04871971001975452 0 0)
(0.03995929888561219 0 0)
(0.02974659086583691 0 0)
(0.02343053455471474 0 0)
(0.0140663413328421 0 0)
(0.004236195282710501 0 0)
(-0.003079332172614665 0 0)
(-0.0119708463915059 0 0)
(-0.02042239897158462 0 0)
(-0.02676702630266585 0 0)
(-0.03590846972003792 0 0)
(-0.04138256477001825 0 0)
(-0.04684263170795829 0 0)
(-0.04919880540449332 0 0)
(-0.05028694980026518 0 0)
(-0.04780541319087967 0 0)
(-0.04600447325935993 0 0)
(-0.03895486562218365 0 0)
(-0.03241490910414171 0 0)
(-0.02478849851490202 0 0)
(-0.01605028588606255 0 0)
(-0.005931515278211076 0 0)
(0.003779305432833553 0 0)
(0.01553456024898649 0 0)
(0.02658995064447177 0 0)
(0.03811646952559502 0 0)
(0.04916149846244894 0 0)
(0.0594153629039009 0 0)
(0.07025661074422522 0 0)
(0.08067193955590396 0 0)
(0.08923855467833046 0 0)
(0.09858485075111773 0 0)
(0.107942509413873 0 0)
(0.1149486401686257 0 0)
(0.120404664464878 0 0)
(0.1275139006290575 0 0)
(0.1303681766021323 0 0)
(0.1297240489057517 0 0)
(0.1266161516377175 0 0)
(0.1208866104224721 0 0)
(0.1131949861316341 0 0)
(0.1041518988720729 0 0)
(0.09276736198289028 0 0)
(0.08186977580357754 0 0)
(0.07336754139400606 0 0)
(0.06206068703065202 0 0)
(0.05330842451935958 0 0)
(0.04545573450923922 0 0)
(0.03522554679883078 0 0)
(0.0293869245689845 0 0)
(0.02252685886784799 0 0)
(0.01329484549484008 0 0)
(0.006254561741066752 0 0)
(-3.100582562721514e-05 0 0)
(-0.00907260844173636 0 0)
(-0.01486502345203995 0 0)
(-0.02147405830166092 0 0)
(-0.02937159853889739 0 0)
(-0.03349438953226369 0 0)
(-0.03743955211688539 0 0)
(-0.0376592340494095 0 0)
(-0.03669492629653037 0 0)
(-0.03696621515699159 0 0)
(-0.03067841123150676 0 0)
(-0.02379819524799566 0 0)
(-0.01714134453883144 0 0)
(-0.008445709461499076 0 0)
(0.0002304573928743394 0 0)
(0.01033565728727379 0 0)
(0.02154101162070115 0 0)
(0.03164493855622844 0 0)
(0.04343188321273031 0 0)
(0.05515386587263927 0 0)
(0.06521514716616603 0 0)
(0.07603091741686779 0 0)
(0.0863919798869873 0 0)
(0.09544782082550837 0 0)
(0.1051263273925846 0 0)
(0.1123419615930603 0 0)
(0.1206325853557945 0 0)
(0.1274325704164531 0 0)
(0.1320609662673681 0 0)
(0.1363031607886059 0 0)
(0.1379023056460423 0 0)
(0.1361608097161112 0 0)
(0.1326888600008623 0 0)
(0.125669030325026 0 0)
(0.1189150688756803 0 0)
(0.1085244831542832 0 0)
(0.09709583037271512 0 0)
(0.08454859467736495 0 0)
(0.07501263201155327 0 0)
(0.06300138217618324 0 0)
(0.05325813444569556 0 0)
(0.0457626180623671 0 0)
(0.03755299104174115 0 0)
(0.03208391222854448 0 0)
(0.02542191481651268 0 0)
(0.01716441609938281 0 0)
(0.01049942589739879 0 0)
(0.002507918352105767 0 0)
(-0.004764743024188457 0 0)
(-0.01129515314130279 0 0)
(-0.01924796456568171 0 0)
(-0.0250545196444719 0 0)
(-0.02766866134104127 0 0)
(-0.03070228675846566 0 0)
(-0.0295422269184199 0 0)
(-0.02907586646480828 0 0)
(-0.02635763049180603 0 0)
(-0.02043352513267573 0 0)
(-0.01314851059057584 0 0)
(-0.005975293347565296 0 0)
(0.002874018783746182 0 0)
(0.01228716255513012 0 0)
(0.02405068229631483 0 0)
(0.0338642641352421 0 0)
(0.04422386948883428 0 0)
(0.05785877826217035 0 0)
(0.06843693380297895 0 0)
(0.07641795368229079 0 0)
(0.09057467849583795 0 0)
(0.09748941023650609 0 0)
(0.1110731232278412 0 0)
)
;

boundaryField
{
    inlet
    {
        type            zeroGradient;
    }
    outlet
    {
        type            pressureInletOutletVelocity;
        value           uniform (0.1110731232278412 0 0);
    }
    frontAndBack
    {
        type            empty;
    }
}


// ************************************************************************* //
