/*--------------------------------*- C++ -*----------------------------------*\
| =========                 |                                                 |
| \\      /  F ield         | OpenFOAM: The Open Source CFD Toolbox           |
|  \\    /   O peration     | Version:  v2012                                 |
|   \\  /    A nd           | Website:  www.openfoam.com                      |
|    \\/     M anipulation  |                                                 |
\*---------------------------------------------------------------------------*/
FoamFile
{
    version     2.0;
    format      ascii;
    class       volScalarField;
    location    "0.016";
    object      p;
}
// * * * * * * * * * * * * * * * * * * * * * * * * * * * * * * * * * * * * * //

dimensions      [1 -1 -2 0 0 0 0];


internalField   nonuniform List<scalar> 
1000
(
101302.3473584961
101304.40811053
101299.6190480923
101288.0398422088
101283.7675000744
101276.435539451
101269.8647248319
101266.0370877768
101262.5893970322
101260.1914372404
101258.3702411318
101257.7449071834
101259.739021411
101261.2206410297
101264.0309793153
101270.497493452
101273.9498343644
101281.5090902405
101290.0625161305
101296.9604664668
101306.2544705964
101315.3527783769
101324.6220505365
101334.3999735351
101343.2723696991
101352.364757552
101361.5657671564
101368.5022257449
101375.441508362
101381.9928668337
101385.9556190247
101389.0472113834
101391.2338038372
101392.3943218278
101392.0883749975
101390.652666853
101388.5389113112
101385.6063189296
101380.7292179152
101375.0895835393
101368.7887829102
101360.7312191938
101352.4133058675
101344.8370192266
101335.3168482263
101326.2553361205
101318.351430733
101309.2063971368
101300.8135573941
101292.9573088826
101285.1418249125
101277.8679155443
101271.6325599869
101266.6003058781
101263.1746200996
101260.7165739225
101259.4557893921
101259.1540426836
101259.4947003793
101260.8871225543
101263.6513305886
101266.2654378106
101271.3487386534
101277.849482632
101283.8958992831
101292.8085353167
101301.1761855836
101309.8899211903
101320.189287704
101329.7205827697
101338.6163058965
101348.2236806186
101356.8183876543
101364.6175112159
101372.3381809198
101379.8321317999
101384.3646369274
101387.8543704581
101390.0804863073
101391.3491356526
101391.1762791138
101390.2073098912
101388.7610030154
101386.3792874575
101381.9746331191
101377.6677495099
101372.1781940652
101364.2830663624
101357.3310184762
101349.0948825875
101339.3131986244
101330.646421684
101321.6618821183
101312.3209945116
101303.83232522
101295.4875675301
101287.5687732776
101280.8869548464
101273.9801302492
101268.2180236274
101264.2075417548
101262.0986099178
101260.0299070877
101259.5484895871
101259.5504218517
101260.5444883543
101262.648672825
101265.1786481744
101269.2461277459
101274.834698505
101280.6565135729
101288.602878971
101296.1216835207
101305.2642661638
101315.2143004987
101324.1895585217
101334.1318845705
101344.1934451944
101352.6493240579
101361.2434192628
101369.5547339007
101376.4066155236
101381.9233360884
101385.577212324
101388.5552038136
101389.881779202
101390.351947649
101389.713133218
101387.7172697886
101386.2681519731
101382.7762096591
101377.6949416716
101373.6159297984
101366.3005534247
101359.1922934079
101351.7689793507
101342.4524471765
101333.7366026533
101324.7343649368
101314.9709191078
101305.9242290003
101297.4338538192
101288.8164404262
101281.3093568219
101274.8856767819
101268.0882878201
101264.0401351491
101262.120079641
101259.2223886781
101258.208657841
101258.6317107704
101258.7286926494
101260.5060035163
101262.9256717246
101266.6208834382
101271.4781346427
101276.8636276297
101283.7046648113
101291.4540783504
101299.6317851535
101308.8813702128
101318.3982885264
101328.5152289229
101338.3501538917
101347.349133911
101356.8498945773
101365.9765814605
101372.7732472926
101379.7427201444
101383.9746017723
101387.0272772556
101388.6873903362
101389.7558614468
101389.4345417772
101388.0839254455
101386.5846555293
101383.930863841
101379.1195587822
101374.9901642726
101369.4047133369
101361.6729093964
101354.8161953696
101346.8380540867
101337.4487511414
101328.4351791326
101319.3682091192
101310.008438806
101300.9381821632
101292.2464183089
101284.4725459889
101277.0624515245
101269.6810807919
101265.7395227726
101262.975734834
101260.5456191684
101259.3332528333
101259.3077828708
101259.6758275343
101261.2220537013
101262.6299498108
101266.0455340318
101270.4256713061
101275.0337397713
101281.9952336107
101288.8809781705
101296.3807678376
101305.7458852261
101315.0617868589
101324.5587456932
101334.204094077
101344.7078931243
101353.7257074378
101362.4773275367
101371.1813044607
101379.1339654386
101384.0918141982
101388.3843073484
101390.8238825204
101392.1539411353
101392.7261739052
101391.7899315236
101390.0811619733
101388.4869927859
101385.463331305
101380.5149126219
101376.3902559511
101370.2161291306
101362.6897761981
101356.3573437571
101347.9032715617
101338.6188130075
101330.8653014255
101321.4567664458
101312.3000730113
101304.3892045779
101295.3990939138
101288.4807706946
101281.6410019636
101274.9391584532
101271.1431159562
101268.887138808
101266.3674250009
101265.2005575949
101265.1616979655
101265.5131624353
101266.7808006784
101268.2306424267
101270.571733681
101274.6199014663
101278.716503445
101283.6366320065
101290.2467864965
101296.5808832828
101303.5548606557
101311.6685309698
101319.9576584317
101327.9711098901
101336.4892630804
101344.6688492337
101352.3671391288
101359.5717284427
101366.1437123921
101371.2557653204
101374.7181686898
101377.5854552454
101379.4263193655
101379.6648775621
101379.5484496024
101378.5209490596
101376.1986043812
101374.2887594473
101369.9920285225
101365.4575292207
101361.0788759157
101354.2316638346
101347.9638435806
101340.9807068418
101332.7513877581
101325.4071948265
101317.1045410892
101308.7975434936
101301.166637204
101293.4369686497
101285.1241968784
101280.0875445807
101273.2328939609
101270.2874033001
101267.1244539427
101265.945843892
101264.5672280984
101264.2120153755
101265.1371601531
101266.9424994077
101268.1464744613
101271.3056712672
101275.5435599978
101279.2752387134
101285.3430727434
101291.4151240153
101297.4525610273
101305.532899457
101313.0660496799
101321.1812806347
101329.6829891679
101337.7003037419
101346.2784665701
101353.5586945807
101360.7098965615
101367.4858303505
101371.8813961239
101375.1996609247
101377.6148107355
101378.844434639
101378.8521759173
101377.9950880311
101376.3398914118
101373.7711452249
101370.0215387646
101366.3407144996
101361.5999834902
101354.5993733771
101348.938671326
101342.1322556455
101333.3311555966
101326.4514217185
101318.1393300219
101309.8666005192
101301.9092200137
101293.8390925357
101286.9408363644
101280.0564228913
101273.1172409149
101269.3559779924
101266.0507593295
101264.0015654701
101262.6930298791
101262.17180153
101262.8371775709
101264.2333969255
101265.1562910351
101268.0130275495
101272.0780038706
101275.4322033517
101280.5235606451
101286.4914866989
101292.4613985459
101299.4360591645
101307.0878657994
101315.1641261052
101323.0485299727
101331.1236860611
101340.2027679837
101346.9190325997
101355.2002630489
101362.4350215602
101367.8957040678
101371.2880698661
101375.0875068334
101376.2818603399
101377.0831065809
101376.6096160253
101374.9878833091
101373.225797443
101370.4095702281
101365.5850807161
101361.3106600852
101355.7565009599
101348.7446412206
101342.2109624332
101334.7001528192
101326.7718723787
101318.8986273574
101310.7221146437
101302.534403406
101294.8271790935
101287.1633646787
101279.5270729341
101273.6773101557
101267.3533511699
101264.7088927057
101261.5200159985
101260.3655642484
101259.0207451393
101259.6091501466
101260.3842496822
101261.9364319793
101263.6214885237
101267.1329012215
101270.8968976975
101274.7893990679
101280.9258374628
101286.6359409159
101292.7245318779
101300.7071673478
101307.9625681656
101315.7276690009
101324.3212232951
101332.2218561997
101340.1596909981
101348.5839471137
101355.2932578924
101362.3773315623
101366.3953871193
101370.8435937778
101372.6146418497
101374.1686365709
101374.2232171135
101373.097560752
101370.9831233632
101368.3403145224
101364.6195769552
101360.1787989262
101355.0942123613
101348.6039613401
101341.894354833
101334.7575918851
101326.8557596295
101318.9819996135
101310.8886987007
101302.7927030199
101294.9046114608
101286.845165732
101280.2187493054
101272.8999404853
101267.1553418106
101262.3671142603
101259.2351327952
101257.9836386677
101256.0756724359
101255.5702691917
101256.6140482411
101258.2325189056
101259.6430765479
101262.1030837708
101266.4622605139
101270.1085288285
101274.8948200394
101281.3266145255
101287.0910532005
101293.5172617374
101301.4859348397
101309.3754455256
101316.8321628111
101324.9890076267
101333.9397407436
101340.4546546472
101348.9249982099
101355.668323759
101361.3588762086
101364.7913986458
101368.8381631048
101369.8623131105
101370.6631342249
101370.2660609538
101368.2522607583
101366.412939679
101363.7313770107
101358.5708482228
101353.705495753
101348.2923036043
101341.2405458272
101334.4432921868
101327.2606457453
101319.0054195567
101311.1901890368
101303.3919393043
101295.3997789627
101287.7807291821
101279.9228701181
101273.9733110879
101267.1160978187
101261.8337552788
101258.6055212366
101256.3854581333
101254.6091992506
101254.1853923499
101254.7592429152
101255.7456873272
101257.4846690108
101259.7982142093
101263.0683394435
101266.8073492054
101271.2424663269
101277.0387665411
101282.5392285128
101288.9331465416
101296.4339161909
101303.4697312709
101311.2332104698
101319.5085520326
101327.2161382549
101335.0582207352
101343.3416511906
101349.9233262575
101356.6254311173
101361.2551667442
101365.327336824
101367.5374927834
101368.9055382829
101368.8382553078
101367.720148908
101365.8325181848
101362.885356955
101358.9852123665
101354.3189738154
101348.6834717091
101342.157665007
101335.1237475696
101327.5422413235
101319.7268505597
101311.7204748814
101303.4335574259
101295.4905521057
101287.5729223964
101279.6015810734
101273.1361662448
101266.2055156595
101260.6459501754
101256.3271994422
101253.1983007155
101251.9090821898
101250.1632158521
101250.351099038
101251.5772365161
101253.0282114309
101254.8161461569
101257.8810417947
101261.872894251
101265.8381108656
101270.5489451804
101276.7303943129
101282.9456046273
101289.2177824007
101296.695496675
101304.4937863443
101311.8116556244
101319.6235584933
101327.7660318827
101335.7622573803
101342.0547286519
101350.1274040034
101354.3529212554
101359.5266064368
101362.4742766344
101364.1507556754
101365.2253787704
101364.4515693379
101362.4546583878
101360.7718526993
101357.5111883817
101352.055327466
101347.655040634
101341.6940890089
101334.2282884299
101327.5281220441
101320.1994228388
101311.9843463663
101303.8920843877
101296.2858940715
101287.7406815505
101280.4268457529
101273.4217807363
101266.1336286465
101260.4182180928
101254.868718241
101252.3570008513
101250.3395544917
101247.7050398662
101248.4942106996
101248.3378340288
101249.9285886183
101252.2078920078
101254.2929443646
101258.2636274368
101261.9010383268
101266.3748671726
101272.350899482
101277.5401711641
101284.0685863606
101291.293627366
101297.9516967151
101305.9412581578
101313.653687685
101321.0743143059
101328.9942282596
101336.4209081753
101343.4920639738
101349.4201252275
101354.6305168586
101358.5023429665
101361.3367742759
101362.2901499997
101362.3670438192
101361.3308228747
101358.7481835709
101355.9839754628
101352.1564441503
101346.398238061
101341.1114450384
101334.2361225605
101326.6178675317
101319.5542285908
101311.0252997505
101302.8543190855
101294.9219091467
101286.6638591919
101278.7764876826
101270.8342438363
101264.3207633479
101257.6215524937
101251.8292837548
101248.3737494596
101245.3657776012
101243.4172423733
101242.6981159621
101242.9805352484
101244.4453049071
101246.2482911617
101248.3627945269
101251.6956011066
101255.5830443411
101259.5558787426
101264.3824191336
101270.6904520226
101276.470318307
101282.8715168215
101290.0223513883
101297.4346129932
101304.7116164538
101312.2722992808
101320.2157380944
101327.4465805583
101333.9613276277
101341.0937331413
101346.1587490482
101350.3258140713
101353.530390598
101355.7013295071
101355.9684185349
101355.509041793
101354.4544191034
101350.7598791015
101348.1651684194
101343.2206707421
101336.9170125329
101331.8598763312
101324.2527719169
101316.7585074921
101309.8316294259
101301.393544357
101293.3702908501
101285.2173984843
101277.1872720695
101270.2189885645
101262.6221944642
101255.7194322173
101250.0202224878
101245.8394300184
101242.066845811
101239.7461271806
101238.6120599332
101238.3316653175
101238.973173397
101240.5270073409
101243.0461810936
101245.7627434327
101249.4390084128
101253.9028701725
101258.230356272
101264.7326199144
101270.0134145656
101276.0652732386
101283.7955988086
101290.1768314153
101297.2091476022
101305.2980412531
101312.1245194624
101319.3024784151
101326.4123522817
101333.1836011158
101338.0850119772
101343.2032229016
101346.6213728052
101348.6759013873
101350.1339902321
101350.2031899062
101348.9232061693
101347.249748965
101344.0321868659
101339.4323107715
101334.9795674365
101329.2347812178
101322.0387035379
101315.2841509876
101308.3068123619
101299.9924330996
101292.1985413147
101284.4645314259
101276.778143116
101269.5895644973
101262.3375760831
101255.7920033671
101249.6724287623
101244.4111562994
101240.9149697375
101238.1309975892
101236.5196301965
101235.565017002
101236.0014514249
101237.2183975449
101239.4775377146
101242.2385511267
101245.5731594191
101250.141221345
101254.5916557884
101259.8381902388
101266.1718053276
101271.9332355444
101278.403390168
101285.1608569177
101292.1600651623
101299.5127057174
101306.5594087385
101313.7241539441
101320.9042162416
101327.9395301404
101333.3010333185
101338.9651749865
101342.7922518947
101345.8798417935
101347.986040393
101348.4358190002
101348.0106281872
101346.4064047658
101343.6134279513
101340.0103719231
101335.4572690005
101329.1007515298
101322.9845637911
101315.8078468103
101307.6500197099
101300.3782458566
101292.1767835236
101283.7757684871
101276.2406598934
101268.4662149875
101261.4697857658
101254.7891094374
101248.5581298099
101242.590566478
101239.1492135962
101235.9379204455
101233.031618687
101232.3052739718
101231.7378435296
101233.0698361987
101234.2053315404
101237.2526756998
101240.1938343225
101243.8193210544
101248.9559151878
101253.9103443924
101259.269101816
101265.7220900849
101272.0837133953
101278.3613637181
101285.2781444698
101292.3891189065
101299.3807396619
101306.8192923885
101313.5256387014
101320.1833149024
101326.5176531283
101331.6871750092
101335.9358856726
101339.626612379
101341.755390981
101342.6200392505
101342.6506290297
101341.6106565084
101339.3244060938
101336.4379898889
101332.134630769
101326.5906404952
101321.5629660749
101314.4525051312
101307.090216509
101300.5200653997
101292.1134688738
101284.1260842538
101276.4985923053
101268.7052328047
101261.8382760266
101255.2483097682
101248.7347378101
101243.7786008432
101238.8404948431
101235.7013169551
101233.4234459647
101231.6612150188
101230.7381133497
101230.7904843664
101232.1984133315
101234.2375034315
101236.9740130626
101240.6542607922
101245.1486486432
101250.1478026987
101255.7726926467
101261.9988953291
101268.1894551866
101275.0080307445
101281.6750492913
101288.6686418731
101295.9221937652
101302.7910133822
101309.5503305569
101316.2512886445
101322.6261830763
101327.3652157919
101331.9441191581
101335.6479920224
101337.9428761944
101339.1477344721
101339.8948156016
101339.0442732827
101337.050749195
101335.1714398194
101331.6862021826
101326.5662631756
101322.4750584131
101316.7059019354
101309.2949954644
101302.8017530069
101295.7226311752
101287.9804419166
101280.4268160165
101272.9934795372
101265.9575375236
101258.6603604222
101252.6401102837
101247.1957253476
101241.8631402277
101238.2432109787
101236.5588477042
101234.0566065671
101233.1532511014
101233.1731954067
101233.4021787152
101235.4323846046
101237.0894090486
101240.2958410381
101244.8258187796
101248.5698636814
101254.9941040654
101261.3372868943
101267.1618877332
101274.4919537926
101281.1599037822
101287.726542793
101294.422612286
101301.0954755043
101307.8410032726
101313.7723512351
101320.4412549106
101325.9852996024
101331.2356020294
101335.432416043
101338.8932227048
101340.9093641477
101342.2208987389
101342.3069302835
101341.2992236687
101339.3894729501
101336.3905449175
101332.4190004117
101327.5288890717
101322.1169179248
101315.4651532599
101308.5085417206
101301.7644522062
101293.8238605672
101286.0917199484
101278.9021910452
101271.2652906208
101263.8377805894
101257.9228119309
101251.6547728888
101245.9711983196
101242.1482986191
101239.405585717
101237.2867759437
101235.5304269096
101235.1804200744
101235.8011813421
101237.2065148634
101238.4029740559
101241.2706885757
101245.2894224353
101248.12539548
101253.7161140367
101259.769285487
101264.9748077511
101272.640088759
101279.8242237531
101286.5171169448
101294.1791924614
101300.9589531302
101307.0823709932
101313.3182791263
101318.7888145194
101323.6389376407
101328.6556087684
101332.5399587616
101336.1583013172
101338.7261424153
101341.3771716414
101342.3421842693
101342.5563394805
101341.3587823789
101338.8152854456
101335.2725723516
101330.5545610555
101324.758973484
101317.913354265
101310.8674095763
101303.211659519
101295.0940470142
101287.0716713609
101279.1569958211
101271.3468507396
101264.1508830456
101257.4136767643
101250.8727547739
101245.4148426248
101240.9239619812
101237.8742538502
101235.4266462989
101234.0088199108
101232.8704002033
101233.0589488085
101234.4174777389
101235.8892237305
101238.142499522
101241.2994035626
101244.7002830991
101249.5891195965
101254.8108304281
101259.9765984458
101267.0394507659
101273.85725265
101280.3811037705
101287.9478343114
101295.4326348466
101301.9302330768
101308.6397347299
101315.4959736531
101320.8445338554
101325.6638332967
101329.0001554054
101331.2354850005
101333.3689441596
101336.0172318518
101337.3779538998
101338.7594788121
101339.1651685744
101337.3286826876
101334.3583372629
101329.4532840889
101323.7519194277
101317.9982724812
101310.3857057354
101303.9865772777
101297.5878333341
101289.3571578036
101282.5373707038
101275.8024355282
101267.5653950966
101260.4197494561
101254.6360202718
101248.1945830723
101242.5077428938
101239.3889945756
101237.7078445442
101234.5792307568
101233.9909227943
101233.9062369494
101233.6213613169
101235.7217949381
101237.9854225623
101240.802152175
101243.6523168752
101247.4262693178
101253.209586877
101258.5629663663
101263.505139281
101272.3908598606
101277.5567332269
101284.5912841003
101295.5834249587
)
;

boundaryField
{
    inlet
    {
        type            uniformFixedValue;
        uniformValue    sine;
        uniformValueCoeffs
        {
            frequency       constant 3000;
            scale           constant 50;
            level           constant 101325;
        }
        value           uniform 101312.8819131453;
    }
    outlet
    {
        type            waveTransmissive;
        gamma           1.4;
        fieldInf        101325;
        lInf            2.25;
        value           uniform 101297.3572352055;
    }
    frontAndBack
    {
        type            empty;
    }
}


// ************************************************************************* //
