/*--------------------------------*- C++ -*----------------------------------*\
| =========                 |                                                 |
| \\      /  F ield         | OpenFOAM: The Open Source CFD Toolbox           |
|  \\    /   O peration     | Version:  v2012                                 |
|   \\  /    A nd           | Website:  www.openfoam.com                      |
|    \\/     M anipulation  |                                                 |
\*---------------------------------------------------------------------------*/
FoamFile
{
    version     2.0;
    format      ascii;
    class       volScalarField;
    location    "0.016";
    object      pMean;
}
// * * * * * * * * * * * * * * * * * * * * * * * * * * * * * * * * * * * * * //

dimensions      [1 -1 -2 0 0 0 0];


internalField   nonuniform List<scalar> 
1000
(
101325.0479058932
101325.0380597757
101325.0366438874
101325.0479616555
101325.0713705734
101325.090742345
101325.1055879525
101325.1432788212
101325.1514222887
101325.1917987169
101325.2064820961
101325.2305362139
101325.258816353
101325.2911939543
101325.2936231964
101325.3114163279
101325.3490799922
101325.3559800248
101325.3508643169
101325.3701122738
101325.384369519
101325.381412325
101325.3652445224
101325.3763584039
101325.3780607265
101325.3551634341
101325.3313444937
101325.3367857799
101325.3233712354
101325.2826768249
101325.2741246358
101325.2670677522
101325.2308430971
101325.2019563814
101325.2074511962
101325.1765462666
101325.1442592586
101325.1417557493
101325.1288440779
101325.1035049673
101325.0927544057
101325.0901756886
101325.0816602129
101325.0790943291
101325.0683361867
101325.0838967817
101325.0943950889
101325.0839990231
101325.1064631686
101325.1311118324
101325.1331856484
101325.1534166344
101325.1905389821
101325.1965924918
101325.2254667962
101325.2577144146
101325.2760873735
101325.2971688024
101325.3295330128
101325.3447718321
101325.3653846213
101325.3888882163
101325.4030384318
101325.4129941694
101325.4377651816
101325.4430283641
101325.4388635399
101325.4549596036
101325.4595619556
101325.4449658236
101325.4366759407
101325.4460999834
101325.4239939901
101325.4012595826
101325.3995616127
101325.3824469536
101325.3474001273
101325.340861158
101325.3224668476
101325.2897233666
101325.2743664578
101325.2654086992
101325.2328373923
101325.2207892724
101325.2064923852
101325.1886416757
101325.1772630942
101325.1662583956
101325.1564597555
101325.1523041559
101325.1530364014
101325.1486158809
101325.1530157542
101325.1680438425
101325.1710335808
101325.1859085657
101325.2019791761
101325.2226121498
101325.2374022479
101325.2671963741
101325.2823548944
101325.3093683875
101325.342005228
101325.3536365535
101325.3736808764
101325.4144296733
101325.4224257304
101325.429178089
101325.4685718763
101325.4754906051
101325.4763472593
101325.5012372558
101325.510238606
101325.4952523411
101325.5111677026
101325.5171820329
101325.4935148265
101325.4938099554
101325.4945109564
101325.460759298
101325.4504192385
101325.4507130846
101325.4063094628
101325.3909969351
101325.3903301585
101325.3477155797
101325.3244096421
101325.3284797183
101325.2917139737
101325.261240973
101325.2719087608
101325.2451570313
101325.2148840204
101325.2240223625
101325.2167453046
101325.1864259935
101325.1960708329
101325.2083747966
101325.1825285148
101325.2006543895
101325.225099533
101325.2110553167
101325.2276238451
101325.2659459804
101325.2662908081
101325.2833322101
101325.323835762
101325.3338042183
101325.3558069579
101325.3927623703
101325.4014699141
101325.4225730853
101325.4534099459
101325.4647793806
101325.4713460557
101325.5041109851
101325.5086239391
101325.5123569913
101325.5271104603
101325.5333662515
101325.5249738437
101325.5316867632
101325.5328351312
101325.5122610689
101325.5102777962
101325.4977159315
101325.4782918104
101325.4576728876
101325.4470166189
101325.4228398389
101325.3922303988
101325.384670002
101325.356678372
101325.3313200631
101325.3190145794
101325.2993770646
101325.2733313711
101325.2674673893
101325.2475192213
101325.23063668
101325.2309168184
101325.2120112831
101325.207545296
101325.2110378572
101325.2075706038
101325.2022336975
101325.226128189
101325.2261757675
101325.2277376105
101325.2655415267
101325.2725553782
101325.2820710022
101325.3151393996
101325.3462359132
101325.3491891611
101325.3843117652
101325.4149211716
101325.421963972
101325.4432048631
101325.4743634346
101325.4803789503
101325.4911486984
101325.5168676937
101325.5235821799
101325.523816078
101325.5352122598
101325.5392463616
101325.5371344351
101325.5329327707
101325.5287723442
101325.5208052841
101325.5035752018
101325.4917094739
101325.4742586666
101325.4537247032
101325.4276016528
101325.4136941758
101325.3861835732
101325.3595156981
101325.3428639356
101325.3230030921
101325.2917809342
101325.2805159993
101325.2607717778
101325.240448435
101325.2217758366
101325.2127351755
101325.200112052
101325.185431562
101325.1780932685
101325.1790990276
101325.1716358607
101325.1710498444
101325.1827266038
101325.1801754191
101325.190012119
101325.2082927632
101325.2116059977
101325.2326444062
101325.2525472516
101325.2650454575
101325.2868699226
101325.3062029918
101325.3189933827
101325.3385812272
101325.3508320484
101325.3687074221
101325.3741437085
101325.3869749529
101325.3984994483
101325.4030295438
101325.4044525853
101325.4127451403
101325.4103759847
101325.4085278412
101325.4053472108
101325.4064446752
101325.3862877008
101325.3837699893
101325.3746274531
101325.3529659794
101325.3389434324
101325.3286587307
101325.3062167368
101325.2862240654
101325.2754919034
101325.2597314309
101325.2330650766
101325.2246408186
101325.2115208233
101325.1912950401
101325.1756254979
101325.1705980745
101325.1590741254
101325.1414843057
101325.1381310042
101325.1376959918
101325.1279016806
101325.1220425154
101325.139087717
101325.1295660402
101325.1343741743
101325.1519881042
101325.155362578
101325.1660885709
101325.1824126331
101325.2032184676
101325.2124706953
101325.2311966221
101325.2517794499
101325.2676603672
101325.2721900889
101325.2910262326
101325.3054530298
101325.3067435702
101325.320267384
101325.3299839023
101325.3296215058
101325.3241007794
101325.3417102691
101325.3314771763
101325.3210585271
101325.3303198164
101325.3193255616
101325.2991706192
101325.2988270741
101325.2851510747
101325.2596182979
101325.252291747
101325.2330541762
101325.2143830209
101325.1951078857
101325.182060443
101325.1593846101
101325.1430578299
101325.1276392829
101325.1125003902
101325.0920976534
101325.0843557896
101325.0751919776
101325.0546589411
101325.0489884571
101325.0479851603
101325.031279891
101325.0357939081
101325.0381454006
101325.0336247002
101325.0348521549
101325.0496550055
101325.0541960249
101325.0565958981
101325.0767377554
101325.0964356219
101325.0959851336
101325.121447501
101325.1420365168
101325.1441694547
101325.1640664997
101325.1837615108
101325.1804337768
101325.1950239109
101325.2108226982
101325.2060221564
101325.2107461607
101325.2198688203
101325.2111308039
101325.2114274961
101325.2116170904
101325.2048803311
101325.1957495838
101325.1872500472
101325.1760550105
101325.1599970249
101325.1468146667
101325.1299866968
101325.1130954586
101325.0909187068
101325.0756152096
101325.0580066559
101325.0324562129
101325.0224071736
101325.002757322
101324.9796428406
101324.9674836179
101324.9595894779
101324.9336344544
101324.9291879943
101324.9187374613
101324.9045682521
101324.8990641676
101324.8983356888
101324.8935468437
101324.8889194127
101324.8957523102
101324.8964306813
101324.9042016131
101324.9065413754
101324.9226742856
101324.9290792805
101324.9452483145
101324.9601112965
101324.9686198047
101324.9920150475
101325.0021242478
101325.005061082
101325.0228578966
101325.0319789227
101325.0303650653
101325.0421251212
101325.0479222206
101325.0405294985
101325.0391767669
101325.0431129044
101325.0340136421
101325.025970455
101325.0229693471
101325.0100202212
101324.9942878659
101324.9854247242
101324.9679547626
101324.9462588423
101324.932123724
101324.9146407545
101324.8886172987
101324.8716511549
101324.8567699281
101324.828833552
101324.8132676691
101324.7974673647
101324.7729505665
101324.7610079235
101324.7463463859
101324.7312757485
101324.7207878807
101324.7035060441
101324.697958593
101324.6972967164
101324.6817763471
101324.6857181447
101324.6849737103
101324.6864093508
101324.684088373
101324.6954692126
101324.6955403384
101324.7097654142
101324.7210057348
101324.7285205306
101324.7438955456
101324.7590851331
101324.7635420135
101324.7828737064
101324.7893346385
101324.7885391766
101324.8030644721
101324.8078146258
101324.8046487707
101324.8065453251
101324.8035566709
101324.8009457921
101324.7924655301
101324.7857769849
101324.7805806488
101324.7625829376
101324.7534451251
101324.7414101349
101324.7193728401
101324.7010288472
101324.6883083905
101324.6602632551
101324.6440962238
101324.6219457314
101324.5987393416
101324.5784650384
101324.5631848214
101324.5355148337
101324.5137009206
101324.5059572153
101324.4825569903
101324.461722611
101324.4572270817
101324.4415471168
101324.4185070552
101324.4267015211
101324.4122276466
101324.4031335505
101324.4032836672
101324.4114491897
101324.4008283944
101324.4057035022
101324.4193414166
101324.4123954423
101324.4268095484
101324.442865456
101324.4469152535
101324.4572616993
101324.4782973582
101324.4835099495
101324.4864403615
101324.5037948615
101324.5008520913
101324.5089808736
101324.5124018733
101324.5099776398
101324.5070290989
101324.5023287651
101324.4969233685
101324.4881028201
101324.477173806
101324.4658271797
101324.4574327749
101324.4357675202
101324.4217160811
101324.4050712157
101324.3805651233
101324.3646212659
101324.3403867177
101324.3193077862
101324.2992930504
101324.2771484594
101324.2534816637
101324.2383457752
101324.21331244
101324.1880377036
101324.178200711
101324.1606703017
101324.1414161408
101324.1270580367
101324.1163913743
101324.1033769964
101324.0953887448
101324.0846652746
101324.084528639
101324.0854064273
101324.0773913825
101324.0787542201
101324.0844889935
101324.0857446002
101324.0894545347
101324.0994822081
101324.1079251439
101324.1175943702
101324.1248884947
101324.1413424087
101324.1416878021
101324.1521992227
101324.1556398356
101324.1505922233
101324.162981931
101324.1620702001
101324.1491731924
101324.145851322
101324.1461596027
101324.12956578
101324.1169802922
101324.1081203569
101324.0962726268
101324.0723160872
101324.0653180176
101324.0386473412
101324.0137138538
101323.9975885941
101323.9764468429
101323.945042153
101323.9302857165
101323.9027825215
101323.8810352211
101323.8646223488
101323.8347739215
101323.8094502499
101323.7993551265
101323.7750726666
101323.75392371
101323.745708937
101323.724283725
101323.7083135783
101323.703056564
101323.6953284073
101323.6773083132
101323.6857247887
101323.6830925658
101323.6703585134
101323.6785184906
101323.6838225664
101323.6745280422
101323.6860655486
101323.6964246787
101323.700150812
101323.7054028503
101323.7213056183
101323.7277219185
101323.724517736
101323.7349007303
101323.7414930885
101323.7353119537
101323.7308252549
101323.7414919417
101323.7283839256
101323.7096438577
101323.716308114
101323.6970078866
101323.6780367978
101323.6707215492
101323.6589779795
101323.6264367906
101323.6110097412
101323.6015683911
101323.5599361732
101323.5433411862
101323.5286712849
101323.4918711669
101323.470380813
101323.4591992033
101323.4268573905
101323.3995299668
101323.3801011219
101323.3619093781
101323.333635324
101323.3188226406
101323.3032916123
101323.279555026
101323.2634452733
101323.2548358051
101323.2373090021
101323.228930227
101323.2253868914
101323.2206183515
101323.21455285
101323.2111221989
101323.2116169431
101323.2093852333
101323.2087378753
101323.2167327103
101323.2219060125
101323.2187814826
101323.2320962948
101323.2385915163
101323.240428079
101323.2382722624
101323.2439143277
101323.2396749371
101323.2358385682
101323.2413555092
101323.2219003818
101323.2165575315
101323.2069601195
101323.1886464585
101323.1721612809
101323.1645798273
101323.1399197846
101323.1198856389
101323.1030441115
101323.0702102616
101323.0492800622
101323.0268115002
101322.9919975029
101322.9719723802
101322.9479986764
101322.9146931007
101322.8943392082
101322.8727365645
101322.8404717261
101322.8148600611
101322.7912346642
101322.7727256312
101322.7498869858
101322.7289239991
101322.708028837
101322.6930959595
101322.6755360002
101322.6609150632
101322.6603230019
101322.6446289314
101322.6401133296
101322.6408385658
101322.6261730952
101322.6254611445
101322.6310914644
101322.6238154164
101322.6279998446
101322.6305830917
101322.6304251772
101322.6420961413
101322.6390009804
101322.6352037766
101322.639094402
101322.6388959656
101322.6274383568
101322.6260428172
101322.6243485595
101322.6059031098
101322.5919182827
101322.5816181724
101322.5636504988
101322.5404940774
101322.5323053957
101322.5071614156
101322.4766534961
101322.4581629211
101322.4276778711
101322.4008322318
101322.3692941003
101322.3485637291
101322.3116816441
101322.2889338123
101322.2614632808
101322.2333053677
101322.2016664015
101322.1790940052
101322.1488242365
101322.1215700984
101322.1036158472
101322.0776891997
101322.051875112
101322.0372525715
101322.0176378648
101321.9936346468
101321.9904570563
101321.9794346927
101321.9679565748
101321.963769742
101321.9599552335
101321.9458549379
101321.9482073896
101321.9469301145
101321.9424610918
101321.9464841552
101321.9485807449
101321.9465143493
101321.9503849968
101321.9489077214
101321.9466439271
101321.9472284403
101321.9342041852
101321.9333447721
101321.9341599753
101321.9145339227
101321.8961858575
101321.8955212514
101321.869880735
101321.8441862569
101321.8370846579
101321.8176403336
101321.7845626766
101321.7601201785
101321.7439098583
101321.6989702265
101321.6691616084
101321.6573732474
101321.6160346781
101321.5832621289
101321.5688831688
101321.5335074222
101321.4983587199
101321.4851641222
101321.4494027087
101321.4137904245
101321.4065067871
101321.3783440625
101321.3405426299
101321.3316829084
101321.3151382375
101321.2749231636
101321.2751947743
101321.265474073
101321.2438291618
101321.2442942921
101321.2344419633
101321.2229982964
101321.2182143385
101321.2159834719
101321.2047186959
101321.2098171319
101321.2128013131
101321.2030203145
101321.2052125811
101321.2129080996
101321.1957450207
101321.1920816963
101321.1962281092
101321.1841621152
101321.1689595307
101321.1725064334
101321.1484567592
101321.1309281588
101321.1199810955
101321.0965857593
101321.068670501
101321.0604204093
101321.0310278685
101320.9992320943
101320.9768318763
101320.9461686945
101320.9077645612
101320.8794391444
101320.8514889983
101320.8146354682
101320.7892298794
101320.7619966303
101320.7247503055
101320.6999813646
101320.6666333787
101320.6412897663
101320.6086379818
101320.5877170762
101320.5594723862
101320.5375186552
101320.5062454516
101320.4913500794
101320.470321065
101320.4526190744
101320.443587457
101320.434447617
101320.4197812715
101320.41891065
101320.4069898708
101320.3939309126
101320.3963860417
101320.3933670849
101320.3852229721
101320.3895789136
101320.3906809522
101320.3814500739
101320.376864089
101320.3838809732
101320.3620315829
101320.3594850628
101320.3588100893
101320.3384483684
101320.3291653697
101320.31427533
101320.2934152772
101320.271973891
101320.2539917527
101320.2352275999
101320.2050207611
101320.1858236286
101320.1510901315
101320.1336841697
101320.0867042339
101320.0549461124
101320.0343327364
101319.994245357
101319.9540006866
101319.9430430554
101319.9084377357
101319.8586629754
101319.8445632919
101319.8201609629
101319.7706857618
101319.7508455171
101319.7406790002
101319.6949612304
101319.672349306
101319.6661339451
101319.6292340111
101319.6093224709
101319.6168045845
101319.5906443269
101319.5794974659
101319.5818974137
101319.5728420535
101319.5560831754
101319.5575486311
101319.5569596113
101319.5490161037
101319.5469483546
101319.5526467606
101319.5522733684
101319.5435910023
101319.5423554596
101319.5331470981
101319.5328619951
101319.517887956
101319.5112820165
101319.5026831102
101319.4915679176
101319.4606425344
101319.4584869063
101319.4276685456
101319.4121033944
101319.3908546243
101319.3705764088
101319.3365755651
101319.3098799462
101319.2836392196
101319.2416323669
101319.2183347374
101319.1825705416
101319.1495845314
101319.1228333456
101319.0997144814
101319.0634781036
101319.0363655024
101319.0110954081
101318.9758551603
101318.9558449582
101318.9308390919
101318.9004047316
101318.8811774543
101318.8642928656
101318.83604152
101318.8156803
101318.8093075353
101318.7991862019
101318.7867084982
101318.7836206918
101318.7736713557
101318.7642263219
101318.767971839
101318.7562147347
101318.7601257367
101318.755699512
101318.7501376999
101318.7596543853
101318.7614222117
101318.7473258675
101318.7440569665
101318.7504777929
101318.7328192162
101318.7213428597
101318.7216213048
101318.7053113297
101318.6861895104
101318.6741586516
101318.656143768
101318.6203575481
101318.6261217922
101318.5974114922
101318.5637782594
101318.540827095
101318.5186246235
101318.4730789156
101318.4501505724
101318.4265686534
101318.3713699941
101318.3524104041
101318.3327445561
101318.2945019722
101318.2634257588
101318.2511511126
101318.2038129709
101318.1865325692
101318.1704169201
101318.1306903751
101318.1087918025
101318.1001757469
101318.0632231842
101318.0448843745
101318.0335882831
101318.0146608319
101318.0086910467
101318.0074717676
101317.9859919834
101317.9779319569
101317.9799361151
101317.9705426171
101317.9686077174
101317.9639733235
101317.9619339083
101317.9545282003
101317.9602304908
101317.9606864786
101317.9426577368
101317.9418159289
101317.943160155
101317.9201894265
101317.916799877
101317.9081547492
101317.8808607443
101317.8695432827
101317.8612040227
101317.8212230838
101317.7964879386
101317.8081049954
101317.7611902232
101317.7359665331
101317.7080480585
101317.6798112727
101317.6393688201
101317.6166877256
101317.5837778018
101317.5368771358
101317.5200090765
101317.4829242228
101317.4538748608
101317.4284218868
101317.3996109685
101317.3685514955
101317.3430826144
101317.3170119225
101317.294289508
101317.2650453136
101317.239756807
101317.2264248386
101317.2033081056
101317.1762550954
101317.1910839787
101317.1709124489
101317.1603980204
101317.1505031184
101317.1465447127
101317.1409440115
101317.1320656865
101317.1339241838
101317.1382685003
101317.127214916
101317.1144943163
101317.1348255082
101317.1289248355
101317.090952574
101317.118114926
101317.099665549
101317.0690800578
101317.1114635871
101317.0105212002
101317.0492774351
101317.0598114755
101316.9560871377
101316.936918751
101316.99680926
)
;

boundaryField
{
    inlet
    {
        type            calculated;
        value           uniform 101325.0022079762;
    }
    outlet
    {
        type            calculated;
        value           uniform 101317.0074778445;
    }
    frontAndBack
    {
        type            empty;
    }
}


// ************************************************************************* //
