/*--------------------------------*- C++ -*----------------------------------*\
| =========                 |                                                 |
| \\      /  F ield         | OpenFOAM: The Open Source CFD Toolbox           |
|  \\    /   O peration     | Version:  v2012                                 |
|   \\  /    A nd           | Website:  www.openfoam.com                      |
|    \\/     M anipulation  |                                                 |
\*---------------------------------------------------------------------------*/
FoamFile
{
    version     2.0;
    format      ascii;
    class       volScalarField;
    location    "0.016";
    object      rho;
}
// * * * * * * * * * * * * * * * * * * * * * * * * * * * * * * * * * * * * * //

dimensions      [1 -3 0 0 0 0 0];


internalField   nonuniform List<scalar> 
1000
(
1.176226221576736
1.17625129343413
1.176214493779743
1.176115922264901
1.176079353303152
1.176017426403416
1.175961478620507
1.175928292719939
1.175898507008794
1.175876376022139
1.175860083759453
1.175854460853422
1.175869975367579
1.17588172354327
1.175904898078299
1.175958421765314
1.175986998602741
1.176049780023405
1.176120870172583
1.176178274293594
1.176255586196275
1.176331282529978
1.176408382963041
1.176489664149006
1.176563379499376
1.176638864172732
1.176715207636225
1.176772731296143
1.176830248235531
1.176884521686598
1.176917314588919
1.176942961610718
1.176960936217319
1.176970474487282
1.176967964298676
1.17695596132308
1.176938418540774
1.176914098334463
1.176873664319528
1.176826911392121
1.176774685147699
1.176707897994926
1.176638954302035
1.176576159546013
1.176497244422318
1.176422127070965
1.176356601077722
1.176280774208758
1.176211175670099
1.176146020348002
1.176081200536963
1.176020872744784
1.175969156414117
1.175927416853424
1.175899001911354
1.17587861309023
1.1758681553259
1.175865653907919
1.175868480639023
1.175880029096412
1.175902955311643
1.175924636642441
1.175966795192687
1.176020707514736
1.176070851126198
1.176144761366648
1.176214150229929
1.176286407411335
1.176371810330124
1.176450842225255
1.176524601947881
1.176604260381041
1.176675520651758
1.176740183278351
1.176804194349444
1.176866324298555
1.176903901235737
1.176932832841422
1.176951288306367
1.176961805955913
1.176960372990977
1.176952339975961
1.176940349598522
1.176920604264923
1.176884087378581
1.176848380825836
1.176802868769758
1.176737411138986
1.176679771656695
1.176611484145102
1.1765303800704
1.176458518339163
1.176384019711778
1.176306564574998
1.176236174068721
1.176166975249963
1.176101307352444
1.176045895952968
1.175988617699002
1.175940831549338
1.175907571551323
1.175890081423306
1.175872924879789
1.175868932269548
1.175868948295976
1.175877192497075
1.175894643225802
1.175915625131355
1.175949357870421
1.175995704447637
1.176043984963107
1.176109882856829
1.176172233555352
1.176248048287735
1.176330556193984
1.176404979013424
1.176487418594353
1.176570844463969
1.17664095478084
1.176712209342938
1.176781117809165
1.176837924891819
1.176883661680641
1.176913954027281
1.176938642729443
1.176949640544464
1.176953538344991
1.176948242154544
1.176931695625394
1.176919681836565
1.176890732014676
1.176848605044036
1.176814787509156
1.176754136969183
1.176695202258714
1.176633654630091
1.17655640788058
1.176484139807341
1.176409495274317
1.176328536700182
1.176253519493098
1.176183113492707
1.176111652345527
1.17604939730159
1.175996125725996
1.175939753847967
1.175906181367709
1.175890257565045
1.175866225821612
1.175857818484034
1.175861326920234
1.175862131167069
1.175876871018735
1.175896938237728
1.175927583686048
1.17596786565913
1.176012528194367
1.176069260418109
1.176133524273139
1.176201338743019
1.176278039781749
1.176356955329438
1.176440844205411
1.176522392234983
1.176597006727801
1.17667577977998
1.176751449280478
1.176807799044677
1.176865580587424
1.176900665104192
1.176925973037148
1.176939735941359
1.176948593956684
1.176945929980876
1.176934732723037
1.176922303245389
1.176900302110427
1.176860413338145
1.176826178140778
1.176779870727482
1.176715766404422
1.176658916862875
1.176592768354194
1.176514916806824
1.176440179075255
1.176364996877085
1.176287384158864
1.176212170555914
1.176140093689613
1.176075626663345
1.176014175332885
1.175952960728494
1.175920272355811
1.175897351348957
1.175877197450976
1.175867142773804
1.175866931512723
1.175869983768629
1.17588280718942
1.175894483442611
1.17592280987118
1.175959135206464
1.175997350706106
1.176055081983588
1.176112184166698
1.176174377555337
1.176252037142332
1.176329286790401
1.17640803561444
1.176488012639022
1.176575105381068
1.176649874698073
1.176722435135126
1.176794598920435
1.176860531889662
1.176901635019291
1.17693722160809
1.176957446549872
1.176968473087681
1.176973217074948
1.176965455257081
1.17695128887777
1.176938072702248
1.176913005329006
1.176871980143106
1.176837784407372
1.176786596388026
1.176724195882179
1.176671693502082
1.176601598959625
1.176524617145019
1.176460327870155
1.176382313772506
1.176306385653367
1.17624078657703
1.176166236261359
1.17610886475977
1.17605214383633
1.175996565396834
1.175965084353536
1.175946375097539
1.175925478468521
1.175915801293878
1.175915479024975
1.175918393821852
1.175928906582851
1.175940930503629
1.17596034567941
1.175993917442171
1.176027890772456
1.176068693088115
1.176123509470745
1.176176035935831
1.176233867562021
1.176301148403418
1.176369882745157
1.176436329530537
1.176506959499049
1.176574780612685
1.176638609576685
1.176698343851446
1.176752831986128
1.176795215235034
1.176823921087679
1.176847692773561
1.17686295466529
1.176864932444615
1.176863967220794
1.176855448512021
1.176836194751584
1.176820360928283
1.176784737649463
1.176747142641219
1.176710839592137
1.176654068554714
1.176602100406673
1.176544200574535
1.176475966378684
1.176415069887392
1.17634622468684
1.176277341674197
1.176214063413719
1.176149964923359
1.176081029387178
1.176039260867427
1.175982415029179
1.175957987701846
1.175931756603054
1.175921982101941
1.175910548848647
1.175907602975277
1.175915275458571
1.175930247525618
1.175940232507922
1.175966432270148
1.176001577376697
1.176032524503233
1.176082844326487
1.176133198234913
1.176183264583787
1.176250270280608
1.176312737081345
1.176380029165121
1.176450524254671
1.176517001213937
1.176588126803174
1.176648489233663
1.176707780763034
1.176763959639833
1.176800402467435
1.176827913271093
1.176847936464476
1.176858130867027
1.176858195019618
1.176851089184173
1.176837366538541
1.176816069859035
1.176784982662599
1.176754465456703
1.176715160519287
1.176657117690206
1.17661018341631
1.176553749083911
1.176480774055616
1.176423728944833
1.176354805689555
1.176286207052409
1.176220221900186
1.176153300114157
1.176096094938142
1.176039003562488
1.175981456670155
1.175950263920172
1.175922852967
1.175905858401629
1.175895006250188
1.17589068361667
1.175896201805389
1.175907780984955
1.175915434994818
1.175939126738654
1.17597283809517
1.176000655003099
1.176042877759115
1.176092368717346
1.176141875791872
1.176199713735092
1.176263165446705
1.176330135658933
1.176395513224811
1.176462471030564
1.176537751521838
1.176593438814773
1.176662100781371
1.176722084677321
1.176767358746994
1.176795484239743
1.17682698438009
1.17683688637539
1.176843529325957
1.176839603794107
1.176826158464425
1.176811549541988
1.176788200943445
1.176748201553522
1.176712762635542
1.176666712820649
1.176608575697188
1.176554402620877
1.176492126400358
1.176426387200832
1.176361102935344
1.176293302348959
1.176225407348619
1.176161495160523
1.176097941643548
1.176034614924106
1.175986102595985
1.175933656911403
1.175911725699113
1.175885279276309
1.175875704915923
1.17586455185379
1.175869431741269
1.175875859959664
1.175888732747899
1.175902707706259
1.175931828792527
1.175963044263166
1.175995325574522
1.176046214977873
1.176093567919152
1.176144059231803
1.176210255627107
1.17627042001557
1.176334809904451
1.176406067657688
1.17647157810385
1.176537395541817
1.176607244645207
1.176662873093087
1.176721607634313
1.176754921160462
1.176791800519859
1.176806483871312
1.176819367660195
1.176819820187938
1.176810487629737
1.176792957316121
1.176771046322524
1.176740198045766
1.176703379584279
1.176661222947659
1.176607410669285
1.176551778728207
1.176492604012811
1.176427084129362
1.176361795556044
1.176294685084727
1.176227550583493
1.176162138647722
1.176095304226008
1.176040352130631
1.175979657126365
1.175932016020101
1.17589230586758
1.175866331155444
1.175855951953928
1.175840128280257
1.175835936787153
1.175844593317087
1.175858015972319
1.175869714456261
1.175890116433301
1.175926268238806
1.175956507758305
1.175996201292751
1.176049539843917
1.176097343685875
1.176150634535462
1.176216714893011
1.176282137586651
1.176343969862562
1.176411606182705
1.176485823761925
1.17653984256837
1.176610073748563
1.176665984181706
1.176713165000354
1.176741624010527
1.176775175174999
1.176783666219704
1.176790305763977
1.176787013711428
1.176770317567852
1.176755067957678
1.176732835502045
1.1766900493171
1.176649710120554
1.176604828085064
1.176546359043285
1.176489999271321
1.176430442781785
1.176361991217952
1.176297186532442
1.176232521195
1.176166246379751
1.176103064112699
1.176037900125564
1.175988560239057
1.175931692327345
1.175887884124845
1.175861111064238
1.175842699066564
1.175827967622534
1.175824452786514
1.175829212021595
1.175837393118386
1.17585181536299
1.175871002702649
1.175898123094731
1.175929131806702
1.175965913412344
1.176013982531897
1.176059597584359
1.17611262143923
1.176174822603813
1.176233166885187
1.17629754411811
1.176366164121392
1.176430074709667
1.176495099205077
1.176563781661218
1.176618352635847
1.176673921166976
1.176712306693285
1.176746068884712
1.176764393053236
1.1767757353402
1.176775177499156
1.176765907416879
1.176750257261271
1.176725822553594
1.176693486383754
1.176654798017847
1.176608072796124
1.176553964851211
1.176495642836214
1.176432779182276
1.17636797478835
1.176301585235624
1.176232867774941
1.176167000567285
1.176101342345601
1.17603523718877
1.175981619239627
1.175924142136505
1.175878034698911
1.175842217311018
1.175816267710039
1.175805575411259
1.175791095869042
1.175792654137381
1.175802823222241
1.175814856966061
1.17582968542824
1.175855104219402
1.175888210221416
1.175921095140973
1.175960163391405
1.176011426627801
1.176062969168981
1.176114983244734
1.176176993163824
1.176241660246627
1.176302342022025
1.176367119048174
1.176434635773967
1.176500938149457
1.176553112313675
1.176620045998205
1.17665508076031
1.176697976270818
1.176722415481484
1.176736315125412
1.176745224860672
1.176738809229994
1.1767222527957
1.176708300759168
1.176681266505079
1.176636030748473
1.176599546927716
1.176550122525899
1.176488219143198
1.176432663403621
1.176371894679094
1.176303774625185
1.17623667146345
1.176173597364571
1.176102734932007
1.176042082377508
1.175983989262602
1.175923547290171
1.17587614745045
1.175830122800639
1.175809291656077
1.175792559751987
1.175770709957684
1.175777255076004
1.175775958195353
1.175789151340081
1.175808055033998
1.175825347744399
1.175858278427158
1.175888445115733
1.175925548309376
1.175975108517536
1.176018143641447
1.176072283498466
1.176132198916854
1.176187411724321
1.176253664591931
1.176317617849845
1.176379150097945
1.176444821014021
1.176506400776439
1.176565031347699
1.176614183075082
1.176657383709315
1.176689485429699
1.176712985854376
1.176720890250144
1.176721527834127
1.176712936585832
1.176691523644528
1.176668605414406
1.176636870793684
1.176589127597239
1.176545292758326
1.176488285726013
1.176425116946998
1.17636654614203
1.176295823516057
1.176228067210537
1.176162287885373
1.176093806475718
1.17602839749028
1.175962531974485
1.175908514067532
1.175852954953444
1.17580491646677
1.175776257467146
1.17575131021004
1.175735149473179
1.175729185195441
1.175731527551503
1.175743676003322
1.175758629457561
1.17577616672119
1.175803807854381
1.175836048477943
1.175868997244903
1.175909025782658
1.175961339628539
1.176009272810479
1.176062357790017
1.176121658061707
1.176183125230436
1.176243469331331
1.176306164467445
1.176372032172967
1.176431989515763
1.176486008030355
1.176545146949502
1.176587143119277
1.176621693640758
1.176648263493654
1.176666263144223
1.17666847755537
1.176664668825533
1.176655924874365
1.176625292451505
1.176603779047379
1.176562782443338
1.176510515422583
1.176468583723995
1.1764055071943
1.176343364918087
1.176285926469828
1.176215955155455
1.176149422109023
1.176081812579959
1.176015219372929
1.175957430742026
1.175894428672422
1.175837181030509
1.175789914050387
1.175755239872475
1.175723950875951
1.175704703087197
1.175695297258569
1.175692971687029
1.175698292309396
1.175711179638331
1.175732073246941
1.175754603898877
1.17578509381453
1.175822115229948
1.175858005665526
1.175911931292444
1.1759557262221
1.176005915254237
1.17607002230269
1.176122940426587
1.176181256840644
1.176248333395071
1.17630494026098
1.176364460490314
1.176423415021892
1.176479560578095
1.176520201160671
1.176562638846416
1.176590980047563
1.176608014833844
1.176620104327397
1.176620678099932
1.176610065328721
1.17659619015731
1.176569512157887
1.176531372333297
1.17649445214694
1.176446818286758
1.176387149462125
1.176331140719016
1.176273283429621
1.176204337739105
1.176139706524205
1.176075570340372
1.176011827800563
1.175952212178159
1.175892069450241
1.175837784135305
1.175787030902475
1.17574339534564
1.175714398542502
1.175691308639067
1.175677944085693
1.175670026523785
1.175673646260792
1.175683739573913
1.17570247665031
1.175725376186102
1.175753032819534
1.175790918856459
1.175827829107172
1.175871341348045
1.17592386807804
1.175971648916647
1.176025306417403
1.176081345327972
1.17613938798755
1.176200360223833
1.176258794173234
1.176318205835954
1.176377743274759
1.176436079255134
1.176480535385107
1.176527500246755
1.176559232377487
1.176584832906496
1.176602296108805
1.176606025339296
1.176602499985537
1.176589198774022
1.176566041079149
1.176536166479346
1.176498414255692
1.17644570785433
1.176394993554226
1.176335484375712
1.176267838148964
1.176207538129382
1.176139527200888
1.176069859692337
1.176007371554545
1.175942897148821
1.175884873685752
1.175829467794756
1.17577779049134
1.175728296924924
1.175699754732689
1.175673120508913
1.175649015582358
1.17564299119808
1.175638284897421
1.175649332489272
1.175658750376716
1.17568402492507
1.175708418664098
1.17573848802787
1.17578108954677
1.175822179752837
1.175866622790511
1.175920139728607
1.17597289804665
1.176024959007859
1.176082319189075
1.17614128859394
1.176199266984172
1.176260950341705
1.176316560779284
1.176371766622373
1.176424290343167
1.176467154784751
1.176502383679253
1.176532985543779
1.176550636297907
1.176557805503023
1.17655805913507
1.176549436203316
1.17653047974295
1.176506546919852
1.176470865032754
1.176424895455223
1.176383206804471
1.176324246742776
1.176263197058264
1.176208715248376
1.176139003253079
1.176072765923348
1.176009511771996
1.175944880551297
1.175887930874836
1.175833277327735
1.175779256374844
1.175738151377372
1.175697195409947
1.175671159249496
1.175652266468719
1.175637650453784
1.175629994175448
1.175630428535072
1.175642106003251
1.175659018265445
1.175681714901248
1.175712238569803
1.175749514221118
1.175790975889103
1.175837626421804
1.175889263076149
1.175940603418905
1.175997150777566
1.176052440257279
1.176110436964736
1.176170588021427
1.176227547531012
1.176283597896853
1.176339163233638
1.176392023811877
1.176431319175369
1.176469286363317
1.176499997582301
1.17651902569776
1.176529015889756
1.176535210416664
1.176528158043065
1.176511628539685
1.176496046122607
1.176467147814761
1.176424694329007
1.176390770677027
1.176342933149668
1.176281480732128
1.176227636821028
1.176168933591771
1.176104730324525
1.176042089429644
1.175980444654382
1.175922094286441
1.175861576263545
1.175811647093906
1.175766493231724
1.175722265880813
1.175692242551306
1.175678272506052
1.175657518909395
1.175650026460233
1.175650191876234
1.17565209107698
1.175668929595813
1.175682673019958
1.175709266905568
1.175746837543993
1.175777890033732
1.175831170126098
1.175883776887895
1.175932082509443
1.175992871860501
1.176048169145965
1.176102625318163
1.176158153606385
1.176213488424263
1.176269424732795
1.176318608605864
1.176373907524496
1.176419878167547
1.176463412512035
1.176498211087246
1.176526906581164
1.17654362345244
1.176554498039551
1.176555211355951
1.176546855929475
1.176531021235385
1.176506155516728
1.176473224860391
1.176432677248342
1.176387802165494
1.176332645660716
1.176274960176097
1.17621903623546
1.176153188826786
1.176089068505412
1.176029446734705
1.175966113508312
1.175904515408442
1.175855460155968
1.175803476002848
1.175756338219401
1.175724631813653
1.175701884037368
1.175684310771438
1.175669743685539
1.175666840741382
1.175671989267095
1.175683645010335
1.175693568496362
1.175717353006608
1.175750683440799
1.175774204536732
1.175820571857901
1.175870773737136
1.175913945267816
1.175977515040579
1.176037093355815
1.176092596666371
1.176156135917891
1.176212357206558
1.176263134796842
1.176314844247836
1.176360206305877
1.176400423283858
1.176442020688844
1.176474228663684
1.176504230660231
1.176525522077255
1.176547503159143
1.176555504542542
1.176557280146209
1.176547350604793
1.17652626117888
1.176496886479657
1.176457766317921
1.176409710587081
1.176352947033674
1.176294521285757
1.176231037779231
1.176163722726414
1.176097195871163
1.176031560633833
1.175966790770291
1.175907112910652
1.17585123858467
1.175796991136616
1.175751724785675
1.17571447820423
1.175689184201839
1.175668883856058
1.175657124281646
1.175647682145045
1.17564924601619
1.175660513650336
1.175672720320299
1.175691408889805
1.175717591967026
1.175745798415063
1.175786345050191
1.175829651964937
1.175872494414307
1.175931068954976
1.175987610126137
1.176041712391996
1.176104461706744
1.176166530197094
1.176220410929144
1.17627604774411
1.176332900374627
1.176377250370947
1.176417212046948
1.176444877579201
1.176463412926079
1.176481105258614
1.17650306888419
1.176514350167189
1.176525818245804
1.176529186029063
1.176513956913774
1.176489338352231
1.176448665531402
1.176401385452029
1.176353662682246
1.176290514407426
1.17623740733351
1.176184277526898
1.176115929184123
1.176059264200186
1.176003307211614
1.175934905486877
1.175875597660101
1.175827661763596
1.175774383070676
1.175727590286904
1.175701785049139
1.175688655913995
1.175663309497692
1.175659297533111
1.175659890152679
1.17565849891097
1.175677292340014
1.175696961971747
1.175721199022583
1.175745469911377
1.175777065482175
1.175824368539407
1.175866214963406
1.175903151991547
1.175968393997826
1.176007602873476
1.17604763579439
1.176148940389643
)
;

boundaryField
{
    inlet
    {
        type            calculated;
        value           uniform 1.176271021779363;
    }
    outlet
    {
        type            calculated;
        value           uniform 1.176154898224766;
    }
    frontAndBack
    {
        type            empty;
    }
}


// ************************************************************************* //
