/*--------------------------------*- C++ -*----------------------------------*\
| =========                 |                                                 |
| \\      /  F ield         | OpenFOAM: The Open Source CFD Toolbox           |
|  \\    /   O peration     | Version:  v2012                                 |
|   \\  /    A nd           | Website:  www.openfoam.com                      |
|    \\/     M anipulation  |                                                 |
\*---------------------------------------------------------------------------*/
FoamFile
{
    version     2.0;
    format      ascii;
    class       volScalarField;
    location    "0.016";
    object      T;
}
// * * * * * * * * * * * * * * * * * * * * * * * * * * * * * * * * * * * * * //

dimensions      [0 0 0 1 0 0 0];


internalField   nonuniform List<scalar> 
1000
(
299.9802311149846
299.97993926531
299.9751429037256
299.96599215119
299.9626662847587
299.9567462374142
299.95155492264
299.9486824515828
299.9460679294888
299.9446101285945
299.943371373082
299.942953347322
299.9449027114303
299.9462946886661
299.9487077487702
299.9542088386674
299.9571451395873
299.9635205411573
299.9707203554486
299.9765073921681
299.9843118568271
299.9919478522126
299.9997309887497
300.0079529020189
300.0154222083151
300.0230906504703
300.0308606614313
300.0367253424388
300.0425995218925
300.0481519667192
300.0515193656698
300.0541302389173
300.056018773012
300.0570214886166
300.0567560277982
300.0555672674727
300.0537841842001
300.0513055865713
300.0471801863182
300.0424086793438
300.0370753461743
300.0302541532894
300.0232113816444
300.0167953409211
300.0087343824269
300.0010618398355
299.9943699055515
299.9866291609963
299.9795264082311
299.9728786681517
299.9662653458274
299.9601095563862
299.9548326894831
299.9505741084072
299.9476751569694
299.9455950081509
299.9445280021003
299.9442722564029
299.944560279823
299.9457389943038
299.9480787698556
299.9502913965635
299.9545943206382
299.9600971068064
299.9652150775726
299.9727591840434
299.979841620812
299.9872165064166
299.995932949328
300.0039987830842
300.011526327894
300.0196555248455
300.0269273741866
300.0335256663386
300.040057148794
300.0463965170663
300.0502305367924
300.0531823628916
300.0550653024465
300.056138352197
300.0559921247013
300.0551725102226
300.0539491398323
300.051934517358
300.0482087299584
300.044565481192
300.0399215944902
300.0332425404162
300.0273608994505
300.0203925554547
300.0121160557599
300.0047824147108
299.9971794858271
299.9892744239071
299.9820901918076
299.9750273442442
299.9683246066582
299.9626686436472
299.9568218912444
299.9519439915518
299.9485487882146
299.9467633757433
299.9450119818906
299.9446044073815
299.9446060429379
299.9454476391229
299.9472290786662
299.9493709440243
299.9528143408609
299.9575453757417
299.9624735652643
299.9691999480003
299.9755641016329
299.9833021113143
299.9917230555601
299.9993185269035
300.0077318268081
300.0162454303768
300.0233999533348
300.0306709936739
300.0377023403635
300.0434987329514
300.0481654444761
300.051256236148
300.053775245332
300.0548973306973
300.055295037298
300.0547547463202
300.0530665465707
300.0518407829704
300.0488869980999
300.0445887952691
300.0411381470981
300.0349495855364
300.0289359671947
300.0226553725891
300.0147726295199
300.0073976626961
299.9997798726108
299.9915174272307
299.9838610349818
299.976675054835
299.9693811046433
299.9630266114386
299.9575889099095
299.9518346133889
299.9484075288507
299.9467820405048
299.9443288211899
299.9434705739583
299.9438287764682
299.943910901048
299.945415646003
299.9474641571296
299.9505925039571
299.9547045326709
299.9592634878549
299.965054433387
299.9716140199982
299.9785356462325
299.9863640836773
299.9944183059312
300.0029796896799
300.0113018608315
300.0189162051468
300.0269545658945
300.0346759329217
300.0404257900296
300.0463215038376
300.0499012623573
300.0524834835661
300.0538877357448
300.0547915075834
300.0545197493178
300.0533773557297
300.0521091524437
300.0498643631759
300.0457945854366
300.0423013744687
300.0375762651742
300.0310353321162
300.0252342576119
300.0184839894641
300.010539483063
300.0029123006713
299.9952393910242
299.9873183480868
299.9796417217792
299.9722849846193
299.9657048539414
299.9594322323571
299.9531836504451
299.9498468618718
299.9475070710489
299.9454497250727
299.9444233170583
299.9444017606711
299.9447133797408
299.9460224547399
299.9472143772527
299.9501060078447
299.9538141291495
299.957714993349
299.9636080231897
299.9694365928326
299.9757845323037
299.983710977779
299.9915951940037
299.9996321356184
300.0077941256181
300.0166818845784
300.0243118219877
300.0317160618952
300.0390795056749
300.0458069987294
300.0500008780132
300.0536317933606
300.0556953163098
300.056820351361
300.057304363421
300.0565124786861
300.0550671563458
300.0537187037449
300.0511610727182
300.0469753118578
300.0434861311086
300.038263117583
300.0318959652524
300.0265384748904
300.0193856518367
300.0115298749192
300.0049689986783
299.9970072134271
299.9892581043676
299.9825628738137
299.9749538147271
299.9690979883421
299.9633083073726
299.9576351673269
299.9544216734024
299.952511863117
299.9503787524409
299.9493909050796
299.9493580056035
299.9496555508413
299.9507287379973
299.9519561272033
299.9539379952185
299.9573649918021
299.9608328171491
299.9649976468905
299.9705929173402
299.9759541880066
299.9818568013488
299.988723721287
299.9957386935666
300.0025199992383
300.0097280118025
300.0166491138358
300.0231626181288
300.0292580849939
300.0348180795768
300.0391427579588
300.0420717971052
300.0444973402477
300.0460545634079
300.0462563651739
300.0461578689964
300.0452887179428
300.0433241946327
300.0417085547649
300.0380737298315
300.0342376386062
300.0305331933845
300.0247401805289
300.0194370996558
300.0135284574113
300.0065650936658
300.0003503689732
299.9933241565629
299.9862939022847
299.9798354869814
299.9732930964004
299.966256791343
299.9619933810165
299.9561907986075
299.9536972876188
299.9510196627425
299.9500218698751
299.9488547484243
299.9485540236842
299.9493372492981
299.9508656453884
299.9518848659798
299.9545593306491
299.9581469012431
299.9613057498922
299.9664421035729
299.9715818135952
299.976691918689
299.983530899055
299.9899064023103
299.9967741553051
300.0039685657173
300.0107526842372
300.0180109782461
300.0241707035037
300.0302209288887
300.035953418911
300.0396719488508
300.0424790402097
300.0445220924074
300.0455622424623
300.0455687979034
300.0448437827211
300.0434436060191
300.0412705982936
300.0380986055661
300.0349847047338
300.0309739555527
300.0250511863766
300.0202617969172
300.0145027091606
300.0070555781816
300.0012339026715
299.9941997542417
299.9871985492676
299.9804638189391
299.9736333268961
299.9677943795708
299.9619668361784
299.9560926987746
299.9529086012199
299.9501104924558
299.9483756655164
299.9472678671627
299.9468265675048
299.9473898805199
299.9485719502562
299.9493532212654
299.9517716549626
299.9552129538492
299.9580523510336
299.9623622031642
299.9674139872349
299.9724671165558
299.9783704849804
299.9848467112084
299.9916817367114
299.9983540821586
300.0051874643728
300.0128698949865
300.0185527510402
300.0255593162711
300.0316801937615
300.0362999362927
300.0391697868806
300.0423839239392
300.0433942726664
300.0440720473509
300.0436715042786
300.0422996401004
300.0408090030475
300.0384265655383
300.0343451914904
300.0307289523384
300.0260298776074
300.02009736254
300.0145690654695
300.0082137237887
300.0015047879399
299.994842039507
299.9879222885455
299.9809926573888
299.9744693438281
299.9679824019439
299.9615184259803
299.9565665093146
299.951212929519
299.9489741747505
299.9462744650079
299.9452971006387
299.9441585258227
299.944656685289
299.9453129001803
299.9466270119868
299.9480535350571
299.9510262696544
299.9542127681815
299.9575078450588
299.9627024313231
299.9675359373518
299.9726894904292
299.9794460047176
299.9855866782426
299.9921583294499
299.9994307389782
300.0061163860236
300.0128331412174
300.0199610649149
300.0256376697444
300.0316310648006
300.0350303406352
300.0387934353278
300.0402916720152
300.0416062652789
300.0416524333311
300.0407001986193
300.0389114761016
300.0366757181151
300.0335280155611
300.0297710523941
300.0254692215771
300.019977978543
300.014300853791
300.0082619837169
300.0015754312956
299.9949122644649
299.9880629185104
299.9812109396423
299.9745345335905
299.9677127189257
299.9621036320193
299.9559080938917
299.9510449810764
299.9469912949104
299.9443397021448
299.9432801533312
299.9416647954595
299.9412368797437
299.942120602058
299.943490878091
299.9446850639978
299.9467676972972
299.9504582031605
299.9535449687851
299.957596715985
299.9630413664362
299.9679207583932
299.9733600961894
299.9801047828093
299.9867820279334
299.9930926900226
299.9999955028355
300.0075696564868
300.0130823838444
300.0202492846417
300.0259546498243
300.030769080226
300.0336730195181
300.0370965643493
300.0379629703138
300.0386404164936
300.0383045046474
300.0366008984574
300.0350448659499
300.0327762176414
300.0284103280368
300.0242939562248
300.0197139108692
300.0137472938878
300.0079956929947
300.0019176967057
299.9949317109104
299.9883177110918
299.9817177275548
299.9749532627803
299.9685042574521
299.961852735727
299.9568163501944
299.9510113072234
299.9465393420817
299.943806260476
299.9419266704268
299.9404228095405
299.9400639857795
299.940549842572
299.9413850144775
299.9428573018223
299.9448159923837
299.9475845152058
299.9507499252427
299.9545044699004
299.959411259546
299.9640674082365
299.9694795635798
299.9758284173004
299.9817834124267
299.9883539058063
299.9953572611775
300.0018797845509
300.0085157351583
300.0155247599332
300.0210935914649
300.0267640363465
300.0306809446008
300.0341260534654
300.0359958275738
300.0371531622902
300.0370962446772
300.0361503553958
300.0345534452198
300.0320601249467
300.0287605021443
300.0248126325641
300.0200445172985
300.0145229119132
300.0085711042684
300.0021556163805
299.9955418636933
299.9887661256216
299.9817525776091
299.9750297256784
299.9683279693719
299.9615803821812
299.9561072864308
299.950240044014
299.9455333499405
299.9418769858316
299.9392278934223
299.9381363720273
299.9366581904888
299.9368172586482
299.9378554065466
299.939083909994
299.9405976428085
299.943192488379
299.9465720941755
299.94992900714
299.9539169942831
299.9591498513948
299.9644110021009
299.9697201362473
299.9760494650989
299.9826497449607
299.9888431150068
299.9954542577639
300.0023447470497
300.0091111328438
300.0144355700351
300.0212659287995
300.0248410283452
300.0292182457089
300.0317120423967
300.0331303583022
300.0340394650721
300.03338482882
300.0316954530002
300.0302717349332
300.0275130660187
300.0228971510705
300.0191740591241
300.0141303057094
300.0078130957257
300.0021433379095
299.9959414476445
299.9889891074347
299.9821402979713
299.9757025588718
299.9684696129985
299.9622786333864
299.956348715296
299.9501788459671
299.9453401847916
299.9406418050223
299.9385152556669
299.9368071369877
299.9345765329081
299.9352447217427
299.9351123045867
299.9364591829444
299.938389003701
299.9401542874613
299.9435160784201
299.9465955423546
299.9503829813823
299.9554421197457
299.959834952491
299.9653611755566
299.97147687977
299.9771123331276
299.9838744561367
299.9904016864111
299.9966816210048
300.0033837380633
300.0096681194999
300.0156513785656
300.0206671684076
300.0250755460366
300.028351325775
300.0307493357436
300.0315559214179
300.031620960034
300.0307442817041
300.028559333826
300.0262206581493
300.022982279404
300.0181103484933
300.0136369974271
300.0078193104688
300.0013727491062
299.9953950817739
299.9881770710538
299.9812616403055
299.9745476965725
299.9675577744559
299.9608812298019
299.95415786377
299.9486437394636
299.9429720820677
299.9380680766053
299.9351423565231
299.9325955080848
299.9309456631569
299.9303367589583
299.9305758837312
299.9318161404763
299.9333427602696
299.9351330528369
299.9379548665003
299.941246231599
299.9446097209363
299.948695838766
299.954036099663
299.9589289267461
299.964347517252
299.9704004558466
299.9766743093918
299.9828334030319
299.9892322736404
299.9959546915894
300.0020737647713
300.0075865772259
300.013621743108
300.0179074046745
300.021433145829
300.0241444784205
300.0259812213404
300.026207209138
300.0258185434851
300.0249262447384
300.0218004375478
300.0196050462027
300.0154214044439
300.0100876139793
300.0058082824974
299.9993709949342
299.9930288748799
299.9871665535752
299.9800249524973
299.973234077886
299.9663330595423
299.9595356245727
299.9536367138842
299.9472053761384
299.9413613421277
299.9365360707122
299.9329962185555
299.9298019089766
299.927836897601
299.9268766301137
299.9266392070134
299.9271823993675
299.9284980918246
299.9306311507992
299.9329312761142
299.9360439291073
299.9398233697156
299.9434871011217
299.9489920131266
299.9534625962632
299.9585856656013
299.9651294221417
299.9705308805176
299.976483147016
299.9833294134083
299.9891068973029
299.9951815585184
300.0011982821023
300.0069281702098
300.0110756304807
300.0154063682637
300.018298543438
300.0200368867002
300.0212705525449
300.0213290967584
300.0202461266665
300.0188302117106
300.0161077735028
300.0122156593564
300.0084478783851
300.0035866181635
299.9974970551643
299.9917808135044
299.9858757680398
299.9788387676599
299.9722419449076
299.9656954834225
299.9591889476553
299.9531035205642
299.946964105943
299.941422469061
299.936241260979
299.9317865725359
299.928826287713
299.9264689665574
299.925104523903
299.924296199621
299.9246657671497
299.9256962248292
299.927609161968
299.9299469863038
299.9327704271432
299.9366381901987
299.9404061753014
299.9448480239062
299.9502100998776
299.9550874916538
299.9605646301995
299.9662847812686
299.972209241703
299.9784325779425
299.9843966872145
299.990460386285
299.9965367495062
300.0024903234412
300.0070272601639
300.0118200884519
300.0150583590149
300.0176708282178
300.0194529069723
300.0198334720004
300.0194737078577
300.0181163752333
300.0157531881707
300.0127044954409
300.0088517962369
300.0034729682199
299.9982972141149
299.9922237274415
299.9853196388534
299.9791650442552
299.9722232462732
299.9651121670057
299.9587336720882
299.9521522421779
299.9462291367971
299.9405730694702
299.9352974916787
299.9302447439558
299.9273308576389
299.9246116723522
299.9221507055175
299.9215356603241
299.9210551663314
299.9221830854204
299.9231445826356
299.9257249821802
299.9282153900564
299.9312851417678
299.9356343033769
299.9398290511476
299.944365931884
299.9498290562315
299.9552145729313
299.9605287699879
299.9663837513242
299.9724028276272
299.9783206066318
299.9846163491512
299.9902921118424
299.9959264108982
300.0012868337354
300.0056613653593
300.0092565553003
300.0123795187861
300.0141807761876
300.0149123846076
300.0149382680586
300.0140583189694
300.0121238189146
300.0096814238129
300.0060399813803
300.0013486198768
299.9970939159073
299.9910764529475
299.9848456100355
299.9792848004232
299.9721693746883
299.9654084168972
299.9589517174446
299.9523542868186
299.9465408079081
299.9409615598778
299.9354467291682
299.9312503892073
299.9270691553919
299.9244110380786
299.9224822275283
299.9209899927153
299.9202083162182
299.9202526664112
299.9214448881206
299.9231715559141
299.925488719356
299.9286049468573
299.9324104322336
299.9366431377024
299.9414054972833
299.9466767572678
299.951917563244
299.9576898431187
299.9633335394986
299.9692533804187
299.9753930212928
299.9812067147253
299.9869274567617
299.992598548349
299.9979934441305
300.0020038101303
300.0058785172151
300.0090126907226
300.0109545792988
300.0119740661755
300.0126061886031
300.0118865206605
300.0101996993195
300.0086094611767
300.0056602625654
300.0013277344579
299.9978655597556
299.9929832231654
299.9867113248998
299.9812157450277
299.9752239935888
299.9686707436603
299.9622767465924
299.95598426924
299.9500278908191
299.9438500376139
299.9387530552243
299.9341434167391
299.9296282765949
299.9265631610149
299.925136927644
299.923018120581
299.9222531775812
299.9222700667518
299.9224639638794
299.9241830942515
299.925586168885
299.9283011990572
299.9321368857599
299.9353068589123
299.9407460665242
299.9461164348807
299.9510474101728
299.9572527269985
299.9628972321674
299.9684556977275
299.9741235065293
299.9797714025647
299.9854805373548
299.9905003823335
299.996144168935
300.0008358265358
300.0052787238405
300.0088300260268
300.0117584586104
300.0134644154334
300.0145741498049
300.0146469469027
300.0137943019433
300.0121783683043
300.0096407694506
300.0062801235975
300.0021420783184
299.9975621849833
299.9919329609683
299.9860454903454
299.9803375140456
299.9736166020739
299.9670717808014
299.9609859067081
299.9545210343678
299.9482330961868
299.9432254245319
299.9379185736554
299.9331063856115
299.9298695042989
299.9275471786627
299.9257530861058
299.9242658763559
299.9239694999515
299.9244951546845
299.9256851450338
299.9266982150153
299.9291264191535
299.9325291989989
299.9349303329344
299.9396638482488
299.9447887069372
299.9491956596309
299.9556848292688
299.9617663494598
299.967431753716
299.9739172435851
299.9796556271213
299.9848382569957
299.9901158766216
299.9947455527729
299.9988500272669
300.0030952978405
300.0063822599913
300.0094440438278
300.0116168660356
300.013860020947
300.0146765522481
300.0148577703612
300.0138444814692
300.0116923030378
300.00869457724
300.0047022177457
299.9997978254225
299.9940046541026
299.9880416533611
299.9815622036229
299.9746915157576
299.9679010585682
299.9612013934788
299.9545898568688
299.9484979521791
299.9427941378452
299.9372562333616
299.9326351022141
299.9288326054836
299.9262502989631
299.9241777623558
299.9229772183443
299.9220132407121
299.9221728897756
299.923323270716
299.9245694936516
299.9264774673866
299.929150528285
299.9320300742405
299.9361694274436
299.9405904324713
299.9449638792953
299.9509432871034
299.9567149473626
299.9622375281415
299.968642686528
299.9749781756797
299.9804778344036
299.9861566046384
299.9919592612685
299.9964857375159
300.0005639367463
300.003386861884
300.0052782717764
300.0070829968232
300.0093226560837
300.0104743798224
300.0116400355012
300.011982294291
300.0104287912079
300.0079127137909
300.0037624727531
299.9989391768913
299.9940735849232
299.9876371618791
299.9822324382345
299.9768341629999
299.9698916355837
299.9641469385544
299.9584724166669
299.9515225173531
299.9454849627944
299.9405802810326
299.9350897492745
299.9301796443435
299.9275232788544
299.9258920661575
299.9230892407571
299.9223697760212
299.921967697321
299.9214786251221
299.9229071075085
299.9245954955291
299.9267572486506
299.9290093303844
299.9321294509345
299.9371948977488
299.9423782875298
299.9475955749564
299.9572731571323
299.9625725998274
299.9731959413062
299.979910983572
)
;

boundaryField
{
    inlet
    {
        type            fixedValue;
        value           uniform 300;
    }
    outlet
    {
        type            inletOutlet;
        inletValue      uniform 300;
        value           uniform 299.9836444201676;
    }
    frontAndBack
    {
        type            empty;
    }
}


// ************************************************************************* //
