/*--------------------------------*- C++ -*----------------------------------*\
| =========                 |                                                 |
| \\      /  F ield         | OpenFOAM: The Open Source CFD Toolbox           |
|  \\    /   O peration     | Version:  v2012                                 |
|   \\  /    A nd           | Website:  www.openfoam.com                      |
|    \\/     M anipulation  |                                                 |
\*---------------------------------------------------------------------------*/
FoamFile
{
    version     2.0;
    format      ascii;
    class       volScalarField;
    location    "0.011";
    object      p;
}
// * * * * * * * * * * * * * * * * * * * * * * * * * * * * * * * * * * * * * //

dimensions      [1 -1 -2 0 0 0 0];


internalField   nonuniform List<scalar> 
1000
(
101307.2372338488
101315.1254915754
101309.617936273
101303.1296726419
101299.85455065
101291.7806783637
101283.9626804434
101276.7377752469
101276.7027106607
101277.175153966
101277.0161833318
101276.4894371681
101273.8464419016
101271.4381091215
101271.8920756779
101279.1735875848
101290.6245579596
101301.5172069258
101306.5047378147
101306.0563298554
101301.783926631
101300.6707040423
101306.6610757508
101320.4147354537
101338.8218526835
101353.6797138173
101357.2462258636
101354.5789737488
101353.62770901
101358.675314065
101368.6552427284
101378.4123283211
101383.713477988
101382.8161518248
101373.7256649756
101366.1060190988
101361.2213306037
101362.9594189725
101367.2159880671
101370.5134961462
101370.9401717407
101367.5373651346
101359.2000961531
101348.7462305039
101335.9124903037
101326.5880440433
101316.5365335334
101309.6107423064
101300.0633972144
101296.6255494079
101297.201316277
101299.6811491392
101297.7328618801
101286.5680161452
101275.3057147688
101264.7685990525
101262.9236745445
101268.8793920155
101280.7622483341
101291.0188222376
101295.2698824463
101291.733961614
101277.0474073431
101267.591239041
101267.5305428481
101278.4941346948
101299.3162694966
101322.6519418216
101341.3298868016
101349.065802742
101343.9173198841
101334.2295917699
101326.5435164175
101331.6014537202
101347.2260731885
101367.3453464525
101382.7690261217
101391.1511075643
101387.6458242539
101377.9313847325
101365.8163865704
101359.3973320512
101361.9396873858
101370.9347810979
101379.0356787476
101383.3483280344
101380.1810305909
101367.072593422
101352.0682166432
101339.6548395342
101328.0611536605
101321.9204960704
101322.9877042262
101324.2497526636
101324.7485260327
101313.7274910029
101297.1087328393
101283.3622838097
101275.9126041604
101276.3559222404
101282.3066271811
101286.0256957162
101282.1741319699
101275.895003029
101261.8234320177
101255.4629530316
101260.3411832763
101271.2079441009
101288.833555897
101300.4562153762
101304.8106826962
101298.6522905043
101291.1902626114
101289.0542518546
101298.7511085821
101318.772961399
101340.3401251647
101357.1015577947
101362.2869874094
101356.7969208921
101347.7147609879
101343.3648586807
101351.1958570169
101369.8802647337
101389.3874977159
101401.8672642022
101397.8809026124
101384.8954959072
101366.7024085755
101354.7497500383
101357.0452027037
101361.8994370574
101373.7286746179
101380.1949222623
101375.0552277035
101362.5968243243
101344.2885361029
101327.2236918809
101318.1192169461
101314.3455525132
101312.9563000278
101308.6085331554
101303.7181978417
101296.400666166
101283.0244583161
101274.5274475668
101269.2794074957
101272.8644031251
101279.6569428394
101281.632165375
101277.925329366
101271.0030245314
101261.7394307077
101257.1471618302
101261.9075770025
101272.4494533856
101290.0193973127
101304.9223384685
101314.957745632
101314.6619129936
101311.4173537782
101309.0250477491
101315.1244002099
101328.9514052656
101347.1578272648
101362.5990166148
101368.8299958138
101366.4209754313
101357.5970700406
101352.6294735142
101358.3707707722
101370.7823602416
101386.9239242108
101401.826861744
101406.779672133
101398.5877868103
101382.4034279381
101364.8583665691
101353.733832084
101350.6581022941
101353.1800264177
101356.3063918106
101354.3215196118
101346.5252716138
101333.8184114167
101319.966046408
101310.6759398459
101300.4174775812
101292.7380144342
101287.7805144634
101288.9748718484
101285.372992254
101284.3667034714
101280.06531102
101279.842557982
101275.2816758419
101267.78750886
101266.2732183187
101260.186761804
101260.1546417101
101268.5426782545
101282.5859337946
101294.0873035602
101300.3129807686
101300.8467069167
101297.5764701382
101298.2655587587
101310.6583016063
101333.8060564563
101347.8588658885
101352.7895147224
101348.7431842637
101340.0196360308
101337.0939886651
101345.6671853687
101367.5067473228
101392.6959296016
101404.2943565516
101401.6524957628
101389.4814827557
101375.8670046414
101362.9729351375
101362.6179490523
101368.3066208811
101375.4824313948
101375.5662842542
101371.3338855233
101362.6401388924
101354.8241583001
101340.7376197921
101323.4335974586
101313.0380508762
101312.5937001376
101308.6926462529
101308.2221949414
101307.0122269083
101309.8953070175
101303.7481458402
101282.4775765183
101257.4594519404
101245.9859209083
101239.4535474097
101245.1354690407
101262.8701626212
101284.5881615679
101298.2130059122
101299.488968997
101290.656005528
101278.161315848
101268.439453907
101268.0694014207
101276.319079753
101291.9500189345
101307.6324481337
101331.3560400906
101349.0481072025
101353.8873289675
101353.1921281332
101355.60808248
101361.7114700116
101368.9389145272
101374.1572800977
101373.3323044583
101372.5117513028
101376.4591887621
101381.9458037138
101388.9695579224
101392.7705520027
101390.8965676546
101382.6567434426
101371.772147061
101361.5413179409
101356.4829857265
101355.7241328353
101355.3694560375
101351.5323212017
101343.8994409815
101332.7856721857
101319.1545145563
101300.7566032891
101293.015247057
101291.8949849951
101291.8481716813
101289.4981916412
101287.0233639966
101285.0687205244
101283.095447361
101272.7699238528
101257.7818755152
101252.3175867384
101248.2298046375
101252.9357370809
101265.3488954749
101281.5370683403
101293.3301458367
101296.3768401267
101294.8761867795
101295.8099329607
101305.2737901973
101323.6325266545
101338.3743835895
101343.3397864439
101338.902761737
101329.6894433419
101325.5741467741
101330.1690492143
101344.7728059933
101367.1705516531
101394.3371050401
101404.5835045962
101403.924681496
101396.9046990681
101391.7363137586
101378.6332840506
101366.3130815568
101360.6278950979
101356.0552383831
101353.2524812672
101355.6365028401
101360.9941235509
101368.6710938579
101373.0815877924
101365.4784299522
101342.8394080751
101313.5189105582
101297.5770213132
101293.3075480958
101296.2700887242
101300.5438135747
101299.7125208449
101288.3064302132
101268.3704758609
101256.3229759601
101251.1707082805
101256.3681670465
101267.7996763104
101278.2289024272
101284.2299199443
101282.2281949655
101274.7828628432
101267.5079341933
101265.0608144453
101269.1253637404
101279.6854168383
101292.7104741035
101313.5591605088
101334.469491061
101339.5371592827
101338.8510334192
101338.8425955927
101341.5456003017
101348.7290041545
101360.2722062032
101376.8905731541
101388.2708284644
101389.0011735113
101386.0404456242
101383.3271731001
101382.5033208045
101383.3295131947
101385.1269687209
101384.6944548907
101381.4165645241
101377.4643540426
101375.5674643422
101376.0561852331
101374.9646309487
101369.3405348262
101359.2435558184
101345.4590199881
101326.7971820101
101300.6060580194
101279.2738661935
101272.4215325006
101270.8134316682
101270.1115210856
101273.1927703187
101276.9870941609
101280.9561686008
101280.4517124745
101275.8985216486
101268.6024559012
101262.6761077648
101260.971408399
101262.5443778258
101265.8811809282
101268.6368331494
101272.8641801214
101281.3662204972
101297.1049297215
101318.7014479163
101326.357595121
101326.6128414661
101325.2659950851
101328.2018406277
101333.7527540811
101338.0322735977
101341.245998771
101346.4468449886
101362.5229975238
101379.2245803526
101387.2219060701
101393.204223217
101397.5073709013
101395.4314004176
101386.2594200703
101375.8669386349
101363.3826527825
101358.1790472316
101362.4276709808
101370.8897072341
101383.9315367458
101392.44820623
101390.2601481274
101375.9144235561
101347.7248076035
101310.0208786957
101283.1838961812
101280.0560599946
101289.0111771399
101297.4860316492
101298.8595720097
101291.4597899849
101276.4803940931
101259.2244316216
101249.7997380036
101250.7247725069
101259.4579015815
101274.5449589072
101283.3666017431
101280.6028898306
101274.5198507625
101262.792738035
101256.617419502
101262.1578552284
101281.7294467699
101305.1725201352
101329.0818240615
101336.9202030745
101336.2218595657
101325.9570096737
101315.0466674813
101315.9751409876
101331.8119714388
101360.4162367315
101379.5668321048
101403.7560051476
101412.0347732824
101407.5083988012
101397.1785305826
101373.7034523644
101349.1364528481
101339.6625023519
101341.9783499539
101353.3162505682
101381.2812748878
101416.7403170284
101437.2539398267
101442.169237399
101424.7219431172
101384.4189166198
101322.6402414821
101262.5091387856
101231.6890420919
101227.0356282672
101231.96842072
101269.107652594
101325.8937897228
101355.9496957232
101356.9806517194
101354.0926453543
101345.409145669
101302.4002180599
101233.7069818022
101193.3894482913
101174.887657081
101164.001097945
101169.3815974229
101208.9156990588
101270.5165355226
101309.8046287954
101332.7298433531
101349.9515387553
101348.3289802876
101330.9274044071
101291.891987641
101258.8891657095
101254.5082673439
101250.4348667042
101235.1148734215
101228.3062538582
101241.5848881246
101318.6149429761
101407.5993204764
101458.606489789
101483.9623080612
101496.8511966708
101508.9186193204
101506.0595918453
101476.8715025996
101403.9814765161
101345.7727146117
101314.8343850486
101307.211145823
101313.8562462941
101365.2591676144
101427.0437554326
101455.822649529
101440.5796420767
101396.7742730546
101350.3981523746
101305.3612424908
101285.083207702
101293.0242651267
101310.7159986356
101316.0246311845
101309.0284745261
101283.8491967461
101234.687627501
101185.825478973
101159.0141425375
101152.2896676064
101169.4343219327
101227.3232477805
101301.9993445734
101350.0391705149
101374.7207414865
101368.4305635849
101324.6606969878
101255.7322536676
101200.8207725791
101177.9898837749
101196.4957171768
101242.3069742957
101301.9562388165
101356.4712306267
101388.9544313397
101390.616251958
101372.1659007385
101353.9471644738
101348.5557882144
101384.855620339
101437.7148599627
101469.4122630609
101490.9886923759
101492.8867842989
101449.2864649459
101367.363661848
101315.3303384659
101299.6270093399
101309.331442501
101344.2387261167
101412.4292718674
101462.6376527537
101471.2157532198
101434.9905728951
101366.2931373485
101314.082580095
101266.7149596828
101258.3466270463
101278.8836093999
101313.0638095155
101329.6436752436
101322.6003003754
101283.5595254972
101222.8155822629
101172.1145468824
101143.1936720494
101144.0417537461
101186.2725289225
101268.4259515798
101337.3557985511
101363.7927728043
101349.8843226585
101315.3589256677
101248.422214563
101206.0338948639
101204.0956531828
101242.1577743883
101306.9223841927
101353.9803535896
101388.3965675031
101384.9467765094
101355.0425633774
101317.6423600136
101293.1714696107
101295.9610340112
101337.5726060829
101412.9892022333
101481.1633963747
101524.4961813678
101535.2231559855
101506.3894229298
101418.3051623943
101330.7302023945
101286.8682137553
101287.9921999264
101310.0803859677
101387.9693564917
101450.668731349
101468.5609779919
101436.6754984602
101368.2948488731
101318.6701500034
101265.1099343029
101254.3712722717
101277.6915063412
101320.66951924
101342.6299627084
101344.4512204839
101305.50169299
101237.9752801374
101161.1736916453
101124.4291084558
101126.1182412158
101152.8320862947
101228.5533963669
101321.920085123
101374.0671130929
101399.6029571345
101387.7368373017
101320.8996824968
101237.3316828429
101177.1686641021
101158.7377756766
101191.2595756858
101256.9388600132
101332.0145928667
101392.8710260172
101418.1346588086
101404.6792942541
101369.3762287673
101332.7057200759
101319.1384208841
101354.8103927596
101417.5072130603
101470.6922833823
101510.3985883593
101520.1692862267
101475.3409828627
101375.9347667958
101299.3875509841
101261.0801188871
101271.7443576753
101328.8066140566
101431.8301332862
101500.5618266634
101510.1346459942
101461.0805714285
101363.8902527713
101280.1737254256
101210.9420925799
101199.4759164611
101230.4893328978
101284.3464556402
101328.5854957528
101334.2765891253
101296.5917822946
101235.0140567118
101174.1682700875
101134.7264540228
101126.9909968297
101172.0884756439
101264.9661136566
101342.0737132827
101382.9088964135
101373.4868207617
101313.3889647415
101217.6393975937
101145.0207852368
101125.2547575688
101162.7024671054
101248.3610723789
101351.3202908646
101430.4457900816
101462.0881903265
101441.5154574332
101384.9846340206
101325.9564639746
101289.3698992651
101301.9517481069
101374.6218776897
101453.0495703676
101512.3305552385
101534.6193452852
101510.5253032554
101410.2334192785
101299.0743618304
101234.4026036958
101222.2380816039
101260.7113551685
101356.4178371276
101472.4924121938
101532.728571655
101529.0307670212
101465.6792407041
101354.3984714899
101249.0089677761
101177.7810845707
101166.1854822769
101198.1356655515
101260.1020020812
101309.1076479333
101321.4735954856
101281.6102245122
101209.6095307311
101135.5568513988
101101.5958687946
101123.8510832888
101199.6090307324
101311.3304039057
101395.345450738
101421.526678095
101382.9253320952
101313.2937317398
101189.612468407
101107.8690704593
101091.7950676598
101144.2972087246
101252.1899737229
101345.9639819196
101432.3483459593
101455.557745915
101430.3406802135
101365.0625421711
101310.2180659785
101301.8333774337
101341.1597685369
101413.8085232311
101486.7132752866
101535.7220739662
101532.3547402286
101452.3843145242
101325.762580503
101217.828875496
101166.4822262893
101183.3699537091
101253.1816301143
101391.0968141867
101507.6815670881
101545.5240000925
101505.4181235914
101403.8525704817
101305.1791614699
101185.1035401446
101139.9635160777
101155.3591144011
101217.0662152775
101258.3230137213
101294.8638019698
101278.1077962175
101212.7492850771
101159.3595545451
101111.2093054616
101112.1963211206
101165.3121330983
101230.5304671859
101323.4577312538
101367.0706022441
101361.3978502197
101304.6460839523
101227.4953257648
101114.3473734221
101053.4218980704
101055.0237941972
101119.9057408574
101253.2405512376
101368.6080771064
101479.2068785668
101515.8680726257
101496.379431117
101430.2135893838
101353.9666486081
101320.7690443946
101333.8545149857
101379.6333327922
101424.4713626205
101440.4060930144
101413.0198742643
101333.608911398
101237.3545007242
101186.1602323133
101182.2453639953
101223.0669076425
101318.6122269477
101444.7027615098
101529.2942505944
101558.8250027618
101508.9721414391
101387.0255553374
101230.896860079
101085.5812826971
101009.10160092
101005.4025233929
101065.0279749905
101152.1432078089
101242.6590759479
101291.5641247063
101281.872882101
101236.143397469
101180.9836261205
101134.7870836238
101135.8116305361
101197.1087261168
101259.3167096576
101307.5192068058
101314.8093069456
101268.7604445586
101168.5690936147
101072.5928077224
101027.9621748818
101052.2549808162
101150.1791398745
101287.9962181693
101421.3751631299
101498.6448741198
101500.6280357385
101437.3007569318
101333.4560462177
101244.4258830689
101201.9210215155
101209.5963829562
101262.9401014931
101337.8302205012
101406.1016198403
101423.6628880505
101388.4194693011
101328.2150503671
101258.6601003707
101224.4796350346
101238.7456782649
101319.0495803191
101407.9644904646
101472.8307631936
101477.9230103558
101402.4162669006
101254.8249116944
101110.2300064384
101012.6521206648
100986.6847734146
101029.7604575251
101114.1440056211
101206.7862724701
101260.5541598632
101260.4023267793
101214.7288624389
101151.8819671235
101107.1306750337
101103.3511055413
101127.3738060587
101177.408445211
101212.6914436049
101220.7199004875
101227.9572277815
101200.9606105174
101174.9694380845
101174.0967196467
101200.3937022741
101203.6570567328
101226.3726990024
101258.1229036903
101285.0447216695
101294.4970987726
101310.8012348312
101313.0746639932
101307.2850026356
101287.8615089472
101276.6218142209
101283.0409150475
101313.1496336686
101348.4256095664
101369.1136134992
101366.6668424565
101323.8363896286
101276.4225953009
101226.7192322125
101210.505422541
101232.1255969767
101305.1204798121
101383.6670112962
101430.9842769184
101420.7868964857
101336.0146043752
101191.75427057
101059.5526440916
100980.6135616451
100957.5248074538
101010.7300794775
101109.6241118378
101220.2797592464
101275.9441785817
101266.3014640827
101215.7478906222
101146.2864863234
101080.9422202819
101059.992953526
101092.8330783393
101151.4812179401
101207.7150273841
101233.8859792836
101217.3547447596
101154.756514585
101077.4232523738
101032.2092413543
101034.7204837886
101102.4813053464
101232.1961442624
101344.7766846886
101415.7843077364
101441.1691680934
101401.3064642265
101313.3685414793
101216.7421278038
101171.7476183655
101181.1468227468
101234.7463646038
101300.8409244811
101352.4123875764
101353.2016101018
101308.3108767034
101255.9070889276
101213.8993009977
101209.3693063093
101248.7428554807
101312.2016598134
101389.1723602308
101425.4546341668
101395.4661524747
101284.7420725863
101119.1028835295
101014.1459266087
100955.5657896427
100957.7419380611
101014.5019384595
101125.9259657834
101225.399803991
101257.727787814
101242.4280545051
101187.9128570934
101108.1836690311
101035.7314591521
101016.6103567199
101044.0881906347
101101.1085322995
101164.1283230999
101208.7310784703
101210.4148939352
101166.3488371999
101104.4477629111
101043.0475001325
101012.272795457
101038.4007222531
101126.541533186
101264.9676488387
101371.5067795675
101418.773479633
101419.3304322018
101364.3972823049
101260.4208805957
101167.8923886693
101151.0386082966
101172.0405105355
101218.5601216853
101275.2696412376
101328.5636085452
101331.123904247
101304.54265998
101249.8773373539
101196.6532018098
101162.9495941856
101172.1904978467
101224.1853474736
101290.6040227022
101341.2787352584
101354.7472796828
101298.6374781715
101172.9912392001
101033.8396183169
100951.3268655695
100910.7292457981
100935.1496743142
101006.7729775225
101109.2115483482
101172.3724476145
101185.700303946
101166.1333565685
101117.9139712687
101054.5612470798
101022.3876172481
101026.7740511792
101052.8005265719
101089.8557839939
101122.4518554895
101130.9364081294
101111.3895892262
101072.1969924165
101046.7105605652
101052.8139068952
101103.6480501372
101225.6431287334
)
;

boundaryField
{
    inlet
    {
        type            uniformFixedValue;
        uniformValue    sine;
        uniformValueCoeffs
        {
            frequency       constant 3000;
            scale           constant 50;
            level           constant 101325;
        }
        value           uniform 101325;
    }
    outlet
    {
        type            waveTransmissive;
        gamma           1.4;
        fieldInf        101325;
        lInf            2.25;
        value           uniform 101244.5249700704;
    }
    frontAndBack
    {
        type            empty;
    }
}


// ************************************************************************* //
