/*--------------------------------*- C++ -*----------------------------------*\
| =========                 |                                                 |
| \\      /  F ield         | OpenFOAM: The Open Source CFD Toolbox           |
|  \\    /   O peration     | Version:  v2012                                 |
|   \\  /    A nd           | Website:  www.openfoam.com                      |
|    \\/     M anipulation  |                                                 |
\*---------------------------------------------------------------------------*/
FoamFile
{
    version     2.0;
    format      ascii;
    class       volVectorField;
    location    "0.011";
    object      U;
}
// * * * * * * * * * * * * * * * * * * * * * * * * * * * * * * * * * * * * * //

dimensions      [0 1 -1 0 0 0 0];


internalField   nonuniform List<vector> 
1000
(
(0.02741872418562317 0 0)
(-0.02432658120550909 0 0)
(-0.0638855385148258 0 0)
(-0.09341791408370341 0 0)
(-0.09760457215963854 0 0)
(-0.08015385548365565 0 0)
(-0.06291987945247481 0 0)
(-0.06495558436682258 0 0)
(-0.08740017943413594 0 0)
(-0.1228833585727476 0 0)
(-0.1568778881608964 0 0)
(-0.1668867452039053 0 0)
(-0.1496672836078679 0 0)
(-0.119921868133168 0 0)
(-0.09128674294829865 0 0)
(-0.07799962763972751 0 0)
(-0.07439056198570858 0 0)
(-0.07706690887720942 0 0)
(-0.07688284650742977 0 0)
(-0.06784885991045095 0 0)
(-0.04917969826434596 0 0)
(-0.03159586863032642 0 0)
(-0.02267600219938039 0 0)
(-0.01337275712931219 0 0)
(0.01425805862119298 0 0)
(0.05157600928454487 0 0)
(0.07459070297444206 0 0)
(0.09276663361430794 0 0)
(0.09917142758036196 0 0)
(0.09577453071749319 0 0)
(0.08899064051444042 0 0)
(0.08844506509697994 0 0)
(0.1038356717462482 0 0)
(0.1171831364149586 0 0)
(0.1440564733590316 0 0)
(0.1548973043965418 0 0)
(0.147854766283077 0 0)
(0.1324578964676414 0 0)
(0.1066863175833759 0 0)
(0.084355588295005 0 0)
(0.06030639907701028 0 0)
(0.04208340970481566 0 0)
(0.03162033108051208 0 0)
(0.03078844937419467 0 0)
(0.03972894302020703 0 0)
(0.04968234299040659 0 0)
(0.04642607674145842 0 0)
(0.02236000429252938 0 0)
(-0.03222199521398994 0 0)
(-0.08433010884808144 0 0)
(-0.1220455261709223 0 0)
(-0.1244332192352258 0 0)
(-0.1164219748051073 0 0)
(-0.08685252960644686 0 0)
(-0.06936705526821811 0 0)
(-0.07431888464780592 0 0)
(-0.09762134002047849 0 0)
(-0.1327651385847934 0 0)
(-0.1644548725349472 0 0)
(-0.1680666922045901 0 0)
(-0.1450928662014963 0 0)
(-0.115922597537596 0 0)
(-0.07211411467950857 0 0)
(-0.05666706737277041 0 0)
(-0.05186477080488188 0 0)
(-0.06906963895956085 0 0)
(-0.08455004205396845 0 0)
(-0.07089578383201449 0 0)
(-0.02673923498124703 0 0)
(0.02106387497386739 0 0)
(0.06125119441294254 0 0)
(0.07878238851844815 0 0)
(0.06474841000073972 0 0)
(0.0490986654063271 0 0)
(0.02993783506632748 0 0)
(0.03479499755534749 0 0)
(0.0710242992777312 0 0)
(0.1249632332216105 0 0)
(0.1700576634976689 0 0)
(0.1947309868697111 0 0)
(0.1807706263306579 0 0)
(0.1369700041506549 0 0)
(0.09490815877087602 0 0)
(0.05483031837906637 0 0)
(0.04651780069232595 0 0)
(0.06958994227066138 0 0)
(0.099064793616418 0 0)
(0.1419612350128865 0 0)
(0.1542213791209905 0 0)
(0.1309746684635393 0 0)
(0.06707062122939381 0 0)
(-0.01061027408013763 0 0)
(-0.07185590792960463 0 0)
(-0.09105423240695518 0 0)
(-0.08623730971376055 0 0)
(-0.05986050917351288 0 0)
(-0.03440174123535809 0 0)
(-0.02676547131838944 0 0)
(-0.0462164660334119 0 0)
(-0.07911579495426996 0 0)
(-0.1245762501966695 0 0)
(-0.1537593494002011 0 0)
(-0.1658603924739024 0 0)
(-0.1570293260381841 0 0)
(-0.1264331718791486 0 0)
(-0.1050907881066461 0 0)
(-0.09227821679731978 0 0)
(-0.1021768347224588 0 0)
(-0.1216893149702953 0 0)
(-0.1307922184566498 0 0)
(-0.1216463898109985 0 0)
(-0.09423096838487656 0 0)
(-0.05092105351540041 0 0)
(-0.01219160531472941 0 0)
(0.00936498072200471 0 0)
(0.015896578608204 0 0)
(0.00977213580018251 0 0)
(0.006569442902687947 0 0)
(0.01301101084394447 0 0)
(0.03543885749844215 0 0)
(0.0787477482358378 0 0)
(0.1159108196414038 0 0)
(0.1428798538502801 0 0)
(0.1522779362469893 0 0)
(0.1433016750269193 0 0)
(0.1260871842531189 0 0)
(0.1025356353781295 0 0)
(0.1009862226066815 0 0)
(0.1155458692770219 0 0)
(0.1334129761370453 0 0)
(0.1473811075208325 0 0)
(0.1361538460940084 0 0)
(0.09934975200553711 0 0)
(0.07096544182750777 0 0)
(0.05312718562048985 0 0)
(0.0611963963803457 0 0)
(0.0716475126115247 0 0)
(0.07228550817986826 0 0)
(0.04821834875936076 0 0)
(-0.002939884714446255 0 0)
(-0.05986833273227314 0 0)
(-0.1030193206391491 0 0)
(-0.1155712147512876 0 0)
(-0.101720443694366 0 0)
(-0.06718184445087767 0 0)
(-0.05117712510409144 0 0)
(-0.06628944228889996 0 0)
(-0.09771892482803249 0 0)
(-0.1447578658498262 0 0)
(-0.1799434970034813 0 0)
(-0.1923307664969498 0 0)
(-0.172953036079637 0 0)
(-0.1300332180147947 0 0)
(-0.09514407652740356 0 0)
(-0.07526383168818422 0 0)
(-0.08066982639369351 0 0)
(-0.09468488559724782 0 0)
(-0.1053975025117974 0 0)
(-0.09612086929720316 0 0)
(-0.06971923117164658 0 0)
(-0.03102572159660007 0 0)
(0.005050653022929444 0 0)
(0.03100571112562365 0 0)
(0.03977615095238236 0 0)
(0.04270091515003305 0 0)
(0.04886178760593617 0 0)
(0.06044695110921916 0 0)
(0.07377939280905291 0 0)
(0.1013192690604368 0 0)
(0.1222855068856093 0 0)
(0.1375691340340449 0 0)
(0.136837650550077 0 0)
(0.1314382251075467 0 0)
(0.1315235137719962 0 0)
(0.135829599011337 0 0)
(0.1455788288638244 0 0)
(0.1516370959943648 0 0)
(0.1479620876644838 0 0)
(0.1290675769929399 0 0)
(0.09879881125498584 0 0)
(0.06602095924029316 0 0)
(0.03676207521157297 0 0)
(0.01995581888514437 0 0)
(0.02266445333815395 0 0)
(0.02945643312408908 0 0)
(0.03058411579582542 0 0)
(0.009149673497507806 0 0)
(-0.04182757975010349 0 0)
(-0.09362253271206744 0 0)
(-0.1217635069312429 0 0)
(-0.1214032575336453 0 0)
(-0.1041235771801084 0 0)
(-0.0830632847572237 0 0)
(-0.07899385880064239 0 0)
(-0.1037614292406046 0 0)
(-0.1408484612228235 0 0)
(-0.1679397532556453 0 0)
(-0.1680242236227257 0 0)
(-0.1494693500160053 0 0)
(-0.120738238248356 0 0)
(-0.1018307458116211 0 0)
(-0.091003878352198 0 0)
(-0.09159407415742875 0 0)
(-0.09356923687391501 0 0)
(-0.08315204015505719 0 0)
(-0.06443510656965452 0 0)
(-0.03880560750200625 0 0)
(-0.01247032388575671 0 0)
(0.02119904790967437 0 0)
(0.03490263207684106 0 0)
(0.03666857431854824 0 0)
(0.03985667055998088 0 0)
(0.05009301772003652 0 0)
(0.06566825127865462 0 0)
(0.0748232898053862 0 0)
(0.1006095380836885 0 0)
(0.1406050226529824 0 0)
(0.1664234528944194 0 0)
(0.175715010227482 0 0)
(0.1838109881804265 0 0)
(0.1628138229541997 0 0)
(0.1167986622063353 0 0)
(0.09027925176126557 0 0)
(0.06829588761416736 0 0)
(0.07578519321580701 0 0)
(0.09654762161255928 0 0)
(0.1259957798238583 0 0)
(0.1398551682318445 0 0)
(0.1154702941960476 0 0)
(0.04948193764273058 0 0)
(-0.02396701130528951 0 0)
(-0.06000274398103587 0 0)
(-0.05814121239810556 0 0)
(-0.03857581378663484 0 0)
(-0.01614519772081568 0 0)
(-0.01078225140975214 0 0)
(-0.0344235991434362 0 0)
(-0.07912739039395587 0 0)
(-0.1398103816934832 0 0)
(-0.1834092671923734 0 0)
(-0.1838941524171308 0 0)
(-0.1698095792850322 0 0)
(-0.1547529635290838 0 0)
(-0.1408929094998896 0 0)
(-0.1221926085033375 0 0)
(-0.1057680093915225 0 0)
(-0.1031799190374596 0 0)
(-0.08961710032515756 0 0)
(-0.08286025164698144 0 0)
(-0.09229085754021109 0 0)
(-0.0993428967133011 0 0)
(-0.1190493777525247 0 0)
(-0.1243979797931414 0 0)
(-0.09208999394132995 0 0)
(-0.01246992090755441 0 0)
(0.06967502565232978 0 0)
(0.1078457786257278 0 0)
(0.1146243121290307 0 0)
(0.1006000576031269 0 0)
(0.0732399169516374 0 0)
(0.06069836004585685 0 0)
(0.07571089316503181 0 0)
(0.1043032405484771 0 0)
(0.141681959686109 0 0)
(0.1717041599505957 0 0)
(0.1809420314146163 0 0)
(0.1654041149829653 0 0)
(0.1396005109224097 0 0)
(0.1175344359992388 0 0)
(0.1142991396209514 0 0)
(0.1142729461297544 0 0)
(0.1121121652113981 0 0)
(0.09948127814786729 0 0)
(0.07996666999289671 0 0)
(0.06069329686959974 0 0)
(0.04982144549476645 0 0)
(0.04772038327857825 0 0)
(0.03850108026010141 0 0)
(0.003698119685781175 0 0)
(-0.05653618288416819 0 0)
(-0.09245796507584993 0 0)
(-0.1051475400473332 0 0)
(-0.09750281071667168 0 0)
(-0.08165968146771688 0 0)
(-0.0709437567027294 0 0)
(-0.07880355500852031 0 0)
(-0.1055238668367174 0 0)
(-0.1413720712528704 0 0)
(-0.1733268339709856 0 0)
(-0.1749657183920365 0 0)
(-0.1669374662574671 0 0)
(-0.1623640122401371 0 0)
(-0.1566486937250915 0 0)
(-0.1326065027192265 0 0)
(-0.09834759577609255 0 0)
(-0.07286918363788278 0 0)
(-0.0537110875922798 0 0)
(-0.03672529689138646 0 0)
(-0.03036544608665867 0 0)
(-0.01344826183736779 0 0)
(0.003109459817337726 0 0)
(0.01172596092209317 0 0)
(0.02040132973275186 0 0)
(0.03055541766870259 0 0)
(0.03617756703117047 0 0)
(0.03894520945192994 0 0)
(0.04139187055667901 0 0)
(0.0771331097505107 0 0)
(0.1456605537958405 0 0)
(0.1887031683016435 0 0)
(0.2079048205416811 0 0)
(0.2076633688864543 0 0)
(0.1777786735698828 0 0)
(0.1198837372951865 0 0)
(0.07199903749404268 0 0)
(0.05739479638729544 0 0)
(0.06926150604439556 0 0)
(0.09252631957910065 0 0)
(0.1135892571845587 0 0)
(0.1190264256317549 0 0)
(0.1070860946726652 0 0)
(0.08237726097011251 0 0)
(0.05699793805924792 0 0)
(0.02108077974606729 0 0)
(-0.01875199817331672 0 0)
(-0.03529758392802953 0 0)
(-0.0394047777257989 0 0)
(-0.05146344864065754 0 0)
(-0.07282028616475415 0 0)
(-0.0988804578351523 0 0)
(-0.1206839818138403 0 0)
(-0.1447777464630565 0 0)
(-0.1525951811774861 0 0)
(-0.148615777244039 0 0)
(-0.1447373459135348 0 0)
(-0.1418929158316309 0 0)
(-0.1372609927121053 0 0)
(-0.1277049207962641 0 0)
(-0.1218582802168716 0 0)
(-0.1124474043169483 0 0)
(-0.1121124893590398 0 0)
(-0.1169926453852626 0 0)
(-0.1248189402169841 0 0)
(-0.1280310616025838 0 0)
(-0.107325864606469 0 0)
(-0.05224424807197687 0 0)
(0.01343457458395932 0 0)
(0.04145089588528237 0 0)
(0.05453011451989664 0 0)
(0.05726845826988734 0 0)
(0.05466495670587649 0 0)
(0.05438911632973082 0 0)
(0.07055691516650907 0 0)
(0.1090300051660111 0 0)
(0.1462010087479139 0 0)
(0.1595688066727381 0 0)
(0.1663181270158213 0 0)
(0.1580240470242431 0 0)
(0.1430278291502252 0 0)
(0.1289113653231661 0 0)
(0.126809302315126 0 0)
(0.1330753371158677 0 0)
(0.1455669557142386 0 0)
(0.1498925673807166 0 0)
(0.1407267003354478 0 0)
(0.1261061464639943 0 0)
(0.108789347182892 0 0)
(0.09405650362718042 0 0)
(0.07979096348321264 0 0)
(0.05774477153226029 0 0)
(0.01290254270297087 0 0)
(-0.05913985491711099 0 0)
(-0.1171537812826439 0 0)
(-0.1335160781903768 0 0)
(-0.1312200167398757 0 0)
(-0.1237367147803806 0 0)
(-0.1196337118309963 0 0)
(-0.1193830670660674 0 0)
(-0.1215369772699597 0 0)
(-0.1269940317761943 0 0)
(-0.1246355831546442 0 0)
(-0.1273422189345041 0 0)
(-0.1353372575896157 0 0)
(-0.1420416344647422 0 0)
(-0.1474488795918144 0 0)
(-0.1471369541943262 0 0)
(-0.1433100066711522 0 0)
(-0.1372765211938278 0 0)
(-0.1233869032727971 0 0)
(-0.08506074572911597 0 0)
(-0.02007436587524163 0 0)
(0.01650329346449311 0 0)
(0.03154471073811228 0 0)
(0.02987493305261529 0 0)
(0.01936692552864059 0 0)
(-0.0005098355966349446 0 0)
(-0.009132080528204968 0 0)
(0.003706199774193003 0 0)
(0.04646769723381486 0 0)
(0.1170173585247697 0 0)
(0.1747738175944124 0 0)
(0.1919334232919995 0 0)
(0.1798817943519686 0 0)
(0.1530435702412038 0 0)
(0.1225946231033479 0 0)
(0.1052339461664801 0 0)
(0.1026782031130897 0 0)
(0.1160385018489056 0 0)
(0.1317589926964763 0 0)
(0.1434797453033828 0 0)
(0.1390741499471653 0 0)
(0.1265702672346192 0 0)
(0.1162544284935257 0 0)
(0.09829649360292336 0 0)
(0.09705118591798896 0 0)
(0.07408298151484152 0 0)
(0.01209896691955931 0 0)
(-0.0486542271015331 0 0)
(-0.06779868565729756 0 0)
(-0.09504966986878291 0 0)
(-0.1152960281308191 0 0)
(-0.1289220330976725 0 0)
(-0.1298023885996512 0 0)
(-0.1233428964052777 0 0)
(-0.1174275394627042 0 0)
(-0.1211785246445636 0 0)
(-0.1187131312486267 0 0)
(-0.1340415809522298 0 0)
(-0.1592271319257949 0 0)
(-0.1720999347289136 0 0)
(-0.183606070983099 0 0)
(-0.1706406144843225 0 0)
(-0.1315370002455103 0 0)
(-0.09639577730167166 0 0)
(-0.06320609441371795 0 0)
(-0.0444870107284371 0 0)
(-0.04111175363670439 0 0)
(-0.05527661311390328 0 0)
(-0.06680053670077851 0 0)
(-0.06922474095603341 0 0)
(-0.03907075046640569 0 0)
(0.009594287054167252 0 0)
(0.07577864356890933 0 0)
(0.1286435916164392 0 0)
(0.1737694118019683 0 0)
(0.1697758769624865 0 0)
(0.1266733178916693 0 0)
(0.09018762305853027 0 0)
(0.06433952800639488 0 0)
(0.06576945351443071 0 0)
(0.1005573784370888 0 0)
(0.1577997424744382 0 0)
(0.1963354846940609 0 0)
(0.2213858448799319 0 0)
(0.217251560994524 0 0)
(0.1799705432264747 0 0)
(0.1131576302477496 0 0)
(0.0665405024534228 0 0)
(0.02725090222915676 0 0)
(0.01488786554864078 0 0)
(0.02603432842905592 0 0)
(0.06301419209808416 0 0)
(0.09542000966039392 0 0)
(0.09129711533560315 0 0)
(0.09507198484043007 0 0)
(0.07820258843714416 0 0)
(-0.02676542206992551 0 0)
(-0.1872725670757635 0 0)
(-0.3052276273422557 0 0)
(-0.3709703176550787 0 0)
(-0.3897295319854448 0 0)
(-0.3578064270883528 0 0)
(-0.2196685701287742 0 0)
(-0.01760695053479292 0 0)
(0.09949022681076937 0 0)
(0.1363941375683293 0 0)
(0.1285498725350425 0 0)
(0.09706416352031211 0 0)
(-0.03014026440427186 0 0)
(-0.2000863100510243 0 0)
(-0.3093827227868638 0 0)
(-0.356120152519121 0 0)
(-0.3544222753187743 0 0)
(-0.3017401605607092 0 0)
(-0.1655822694825179 0 0)
(0.07236524319662818 0 0)
(0.3203771138197687 0 0)
(0.4716154287839509 0 0)
(0.5259698734293283 0 0)
(0.5194353088680668 0 0)
(0.4830326804450576 0 0)
(0.4202101534781083 0 0)
(0.2059858360316471 0 0)
(-0.02268550087320305 0 0)
(-0.1530487078714923 0 0)
(-0.2130629570361709 0 0)
(-0.2394468626534668 0 0)
(-0.2290690379365525 0 0)
(-0.1855003909078772 0 0)
(-0.05971052833793554 0 0)
(0.1772557939771189 0 0)
(0.3467067100352344 0 0)
(0.4173994776888826 0 0)
(0.4339964832483741 0 0)
(0.4050181861276561 0 0)
(0.254512627611711 0 0)
(0.06012166663717134 0 0)
(-0.1149608493084134 0 0)
(-0.2748687886615983 0 0)
(-0.3630167124574315 0 0)
(-0.3981279599702202 0 0)
(-0.3538432152185671 0 0)
(-0.2802917085865224 0 0)
(-0.1968248768047615 0 0)
(-0.1358268384803373 0 0)
(-0.1151650561646003 0 0)
(-0.1140157678860321 0 0)
(-0.09285181103220908 0 0)
(-0.03174869457947369 0 0)
(0.03115647593728859 0 0)
(0.04957834167359455 0 0)
(0.04855639551105945 0 0)
(0.02144992431400432 0 0)
(-0.07427624279614597 0 0)
(-0.2013850367982603 0 0)
(-0.2570866999970363 0 0)
(-0.245034120166329 0 0)
(-0.2435141070067911 0 0)
(-0.1634003492703283 0 0)
(-0.05039837937933338 0 0)
(0.0250555985374145 0 0)
(0.07091508184433683 0 0)
(0.1144360981751765 0 0)
(0.1268665027048621 0 0)
(0.1703104230775235 0 0)
(0.2390319146069881 0 0)
(0.3025120785188807 0 0)
(0.3065047943699209 0 0)
(0.3121417608540545 0 0)
(0.2502379352242929 0 0)
(0.1596654424752048 0 0)
(0.007568852472200067 0 0)
(-0.1336882897934046 0 0)
(-0.1825534147216631 0 0)
(-0.1571406885265514 0 0)
(-0.1219398811495978 0 0)
(0.004170064314763597 0 0)
(0.2015887468471681 0 0)
(0.3227511444228846 0 0)
(0.3772621702766272 0 0)
(0.3994944376719857 0 0)
(0.3213532226299572 0 0)
(0.1249597291422514 0 0)
(-0.04052641638339465 0 0)
(-0.1940043035016093 0 0)
(-0.2891051581338957 0 0)
(-0.3575527092527155 0 0)
(-0.3578116424537869 0 0)
(-0.3144993050393036 0 0)
(-0.2387182632368332 0 0)
(-0.1833579350334931 0 0)
(-0.1289392736704226 0 0)
(-0.09785302669519322 0 0)
(-0.08735383512639827 0 0)
(-0.03282366237086193 0 0)
(0.03704767869825474 0 0)
(0.06739322021853089 0 0)
(0.03589165211748416 0 0)
(0.03302962037135405 0 0)
(-0.05080068518495608 0 0)
(-0.1924805701251886 0 0)
(-0.2860691214084944 0 0)
(-0.3144603708764015 0 0)
(-0.3392888462228769 0 0)
(-0.2860453350184133 0 0)
(-0.123561685267635 0 0)
(0.01065846805088325 0 0)
(0.1631829495823718 0 0)
(0.2472941201118238 0 0)
(0.3091943787501354 0 0)
(0.3140305786055345 0 0)
(0.2923090339328652 0 0)
(0.2256986070164488 0 0)
(0.1997094052673085 0 0)
(0.1616588395928642 0 0)
(0.1200569063818183 0 0)
(0.1138810176765102 0 0)
(0.04126900045444728 0 0)
(-0.0698184880589111 0 0)
(-0.1321825031103018 0 0)
(-0.1170561158219757 0 0)
(-0.08210815665672679 0 0)
(-0.003571800806947383 0 0)
(0.1660939222017339 0 0)
(0.313267712408883 0 0)
(0.3630214020642326 0 0)
(0.4013132785230858 0 0)
(0.3681337214594762 0 0)
(0.2040276922017816 0 0)
(0.006911529493709671 0 0)
(-0.1828382890672878 0 0)
(-0.323424588909377 0 0)
(-0.4047927721486933 0 0)
(-0.4025693516610583 0 0)
(-0.3324349297927247 0 0)
(-0.2296771350437301 0 0)
(-0.1498797049828645 0 0)
(-0.08655898967018601 0 0)
(-0.06487149262645106 0 0)
(-0.08900070375734011 0 0)
(-0.0703838770307904 0 0)
(-0.04065801398683214 0 0)
(0.009927511555553678 0 0)
(0.03005438291103157 0 0)
(0.060857884809038 0 0)
(0.03209869525220248 0 0)
(-0.07997942578352069 0 0)
(-0.2396205385688558 0 0)
(-0.306850806671671 0 0)
(-0.2886945275476604 0 0)
(-0.2700104598075917 0 0)
(-0.1408903647203065 0 0)
(0.0101880301647306 0 0)
(0.09052771338180675 0 0)
(0.144976566612436 0 0)
(0.1660599186108636 0 0)
(0.1661803216735271 0 0)
(0.1940370306504514 0 0)
(0.2546151224520162 0 0)
(0.3049446278997899 0 0)
(0.3288491737033654 0 0)
(0.3148331428202793 0 0)
(0.2264057589841194 0 0)
(0.1167681128594832 0 0)
(-0.0380383104922076 0 0)
(-0.1911284052474996 0 0)
(-0.245271958380626 0 0)
(-0.1927737449725387 0 0)
(-0.1059786468097618 0 0)
(0.05833808706556808 0 0)
(0.2871659654605117 0 0)
(0.4032725966835196 0 0)
(0.4064857832780397 0 0)
(0.4199294428919212 0 0)
(0.3169603943652982 0 0)
(0.1091584409973648 0 0)
(-0.04816016570678024 0 0)
(-0.2132419952356469 0 0)
(-0.3000391179589092 0 0)
(-0.360989866427416 0 0)
(-0.3642118809723781 0 0)
(-0.3387111112323211 0 0)
(-0.2648292409258508 0 0)
(-0.2197474608510113 0 0)
(-0.1473904897690529 0 0)
(-0.06577414814949079 0 0)
(-0.03594486412924808 0 0)
(0.0490327972131259 0 0)
(0.1323233904240449 0 0)
(0.1575510686921497 0 0)
(0.1072450795349179 0 0)
(0.05736617124365182 0 0)
(-0.06753131334811539 0 0)
(-0.2495122179056535 0 0)
(-0.350863691084095 0 0)
(-0.3430836178616408 0 0)
(-0.3502928885207941 0 0)
(-0.2438175970604238 0 0)
(-0.0915664965525485 0 0)
(0.01648332987226749 0 0)
(0.1285625560942102 0 0)
(0.2028871951441047 0 0)
(0.2472814566752056 0 0)
(0.296816007223857 0 0)
(0.3386497608411652 0 0)
(0.3592335207637943 0 0)
(0.357065058974081 0 0)
(0.3314342452660382 0 0)
(0.2498994810329119 0 0)
(0.1445186013384366 0 0)
(0.06985526587770524 0 0)
(-0.0926150201956556 0 0)
(-0.1954127894158476 0 0)
(-0.1933688307971909 0 0)
(-0.1346623537029405 0 0)
(-0.05759155059697419 0 0)
(0.1332652906228217 0 0)
(0.3168562845700102 0 0)
(0.3876612328267682 0 0)
(0.4218592051604381 0 0)
(0.4034453160429886 0 0)
(0.2824640850698264 0 0)
(0.06289619778080148 0 0)
(-0.07819817941238885 0 0)
(-0.2539214617924409 0 0)
(-0.3121214133916881 0 0)
(-0.3606752138474617 0 0)
(-0.3449331384210932 0 0)
(-0.3029735983647547 0 0)
(-0.2113219523447717 0 0)
(-0.1525933499723847 0 0)
(-0.07680024331878693 0 0)
(-0.01971956736536706 0 0)
(0.002317395340482605 0 0)
(0.06608636464738209 0 0)
(0.1083963730814373 0 0)
(0.1075041178585278 0 0)
(0.07433476473932005 0 0)
(0.05498851369257037 0 0)
(-0.02756384109370807 0 0)
(-0.1623087581027197 0 0)
(-0.2552750637100439 0 0)
(-0.3256059014885908 0 0)
(-0.3627288675152681 0 0)
(-0.3076139970076354 0 0)
(-0.1107805066468989 0 0)
(0.08022940518396221 0 0)
(0.2883536751944301 0 0)
(0.4205250444805401 0 0)
(0.5062152940604521 0 0)
(0.4943768452759328 0 0)
(0.4159133658143219 0 0)
(0.3032463512662969 0 0)
(0.1937365265973851 0 0)
(0.08325676659335159 0 0)
(-0.006741016613716021 0 0)
(-0.03264594444807224 0 0)
(-0.1078672654028957 0 0)
(-0.1411236972789155 0 0)
(-0.09954568554066714 0 0)
(-0.003303390909992183 0 0)
(0.02583107078899163 0 0)
(0.1777040675860041 0 0)
(0.3537311335105144 0 0)
(0.4474795199628188 0 0)
(0.4537551567009606 0 0)
(0.4869150830129671 0 0)
(0.3966207691604685 0 0)
(0.1820480498441182 0 0)
(-0.02440349314791009 0 0)
(-0.2125388625474418 0 0)
(-0.371258331622063 0 0)
(-0.4597889050587977 0 0)
(-0.4206560167912178 0 0)
(-0.2594842245022985 0 0)
(-0.1232775854778912 0 0)
(0.03675859854297316 0 0)
(0.1367610598137279 0 0)
(0.1555830706052621 0 0)
(0.1045292404724232 0 0)
(0.02756527281729445 0 0)
(-0.04613285389326771 0 0)
(-0.05847587079590632 0 0)
(-0.02827070765879855 0 0)
(0.06618814108923843 0 0)
(0.09424940966431375 0 0)
(0.07072082311460809 0 0)
(-0.05184476735758805 0 0)
(-0.1622594159620861 0 0)
(-0.293746280947324 0 0)
(-0.3266678079716206 0 0)
(-0.2750133974228498 0 0)
(-0.08582793643396155 0 0)
(0.06803548334042279 0 0)
(0.3105748170039829 0 0)
(0.4389667585067818 0 0)
(0.5806630754224217 0 0)
(0.6066304871414903 0 0)
(0.5338989009165824 0 0)
(0.4361189967261112 0 0)
(0.3074948916401031 0 0)
(0.1967562874989031 0 0)
(0.07516476837508063 0 0)
(0.01086427759104772 0 0)
(-0.009373914326295267 0 0)
(-0.0236012073398809 0 0)
(0.004441668106647499 0 0)
(0.02757465583473309 0 0)
(0.07061004312925115 0 0)
(0.1856824851219361 0 0)
(0.3422232103664444 0 0)
(0.434186650579786 0 0)
(0.499834360646063 0 0)
(0.4874542478394633 0 0)
(0.3739843281365586 0 0)
(0.1702975525461509 0 0)
(0.02124886062971558 0 0)
(-0.09917280228637303 0 0)
(-0.1674373927883568 0 0)
(-0.1678834419249111 0 0)
(-0.1645755836634934 0 0)
(-0.1733838948349692 0 0)
(-0.2270283058764791 0 0)
(-0.1511165748618985 0 0)
(-0.150403929406561 0 0)
(-0.06512759384223051 0 0)
(0.08788946812716517 0 0)
(0.2313980007815519 0 0)
(0.3050489489359013 0 0)
(0.3649560108776571 0 0)
(0.3177439454404796 0 0)
(0.1776999399190604 0 0)
(0.09381690362708232 0 0)
(-0.08642125067504325 0 0)
(-0.1901472501001559 0 0)
(-0.1874520216691541 0 0)
(-0.179514795016727 0 0)
(-0.09798680739458999 0 0)
(0.04831130488058266 0 0)
(0.1961240656423001 0 0)
(0.323230007227762 0 0)
(0.4740598912512043 0 0)
(0.5371276488538271 0 0)
(0.5696733572751381 0 0)
(0.5386086618020409 0 0)
(0.4987023185012536 0 0)
(0.3338743498688483 0 0)
(0.2674777773979912 0 0)
(0.1544900855147892 0 0)
(0.06867251744250498 0 0)
(0.02321961377776083 0 0)
(0.03460741546548406 0 0)
(0.0407000869859964 0 0)
(0.1215463813685519 0 0)
(0.2603612996889856 0 0)
(0.3631520184533187 0 0)
(0.4877637560060514 0 0)
(0.5625301508321856 0 0)
(0.5454906924353481 0 0)
(0.4525132608294002 0 0)
(0.3776956470979678 0 0)
(0.2236684295850344 0 0)
(0.1030743735829213 0 0)
(0.06258183224941131 0 0)
(-0.04778321280490092 0 0)
(-0.04811707105487507 0 0)
(-0.0980394723462161 0 0)
(-0.1480096960419199 0 0)
(-0.1900408186147753 0 0)
(-0.1353681005381237 0 0)
(-0.09408176668933249 0 0)
(-0.007658758489291881 0 0)
(0.1207340332410805 0 0)
(0.2229810208736923 0 0)
(0.2281820444221966 0 0)
(0.2702071535011132 0 0)
(0.2589057389160672 0 0)
(0.207193307667488 0 0)
(0.2079546301839818 0 0)
(0.1555606570908109 0 0)
(0.02389008712296963 0 0)
(-0.08615230714609007 0 0)
(-0.1549030076355732 0 0)
(-0.1110639600842371 0 0)
(0.04751654052937345 0 0)
(0.2917600952289047 0 0)
(0.5488519597050052 0 0)
(0.7065042844766671 0 0)
(0.7302663442742048 0 0)
(0.6251544882104102 0 0)
(0.4261384167293026 0 0)
(0.229328901616256 0 0)
(0.1474667990089404 0 0)
(0.1894773365328554 0 0)
(0.2853774494964708 0 0)
(0.3829418140313147 0 0)
(0.4128524681746868 0 0)
(0.3337114703451339 0 0)
(0.2376997804963117 0 0)
(0.1081233541852838 0 0)
(0.07868385853856366 0 0)
(0.1627283916664257 0 0)
(0.2828815922529891 0 0)
(0.4713981571442413 0 0)
(0.5638137990355651 0 0)
(0.5455596743904649 0 0)
(0.4651025656302291 0 0)
(0.3634969116455223 0 0)
(0.2194645883911978 0 0)
(0.1300109175527354 0 0)
(0.1053619956430539 0 0)
(0.02689060098350038 0 0)
(0.02883084828762777 0 0)
(-0.0398137885788531 0 0)
(-0.128608918106498 0 0)
(-0.1880294637593543 0 0)
(-0.1230863020374517 0 0)
(-0.07508868937670117 0 0)
(0.05931741339319772 0 0)
(0.254446498778532 0 0)
(0.3942263987648627 0 0)
(0.4462600386845271 0 0)
(0.503078459074031 0 0)
(0.4560001405512752 0 0)
(0.3179672376854092 0 0)
(0.2023570018574957 0 0)
(0.07602727508899917 0 0)
(-0.009941315058462965 0 0)
(-0.01456867941483705 0 0)
(0.03272174495575821 0 0)
(0.06913412542026734 0 0)
(0.1540531692571172 0 0)
(0.2501689918509771 0 0)
(0.3075888899573271 0 0)
(0.437048386952279 0 0)
(0.5098158733248985 0 0)
(0.635033848608346 0 0)
(0.7119553507494202 0 0)
(0.7231725048159054 0 0)
(0.6367541516514055 0 0)
(0.5497279854047196 0 0)
(0.4206545184416378 0 0)
(0.267817434931998 0 0)
(0.1747544064207714 0 0)
(0.1496294084199048 0 0)
(0.1176629495416757 0 0)
(0.1724068555738761 0 0)
(0.2841036591245591 0 0)
(0.3192616104514893 0 0)
(0.4245211377143616 0 0)
(0.490640852578857 0 0)
(0.4976510205285495 0 0)
(0.5312866207477732 0 0)
(0.518265269952205 0 0)
(0.4818450379318553 0 0)
(0.4020061071581534 0 0)
(0.2971656548067368 0 0)
(0.1610902331595857 0 0)
(-0.004127075184192296 0 0)
(-0.1894142907647972 0 0)
(-0.2450261731295056 0 0)
(-0.2246375741780744 0 0)
(-0.09646996658938529 0 0)
(0.04958317448105917 0 0)
(0.2631607372841013 0 0)
(0.4274054643851418 0 0)
(0.4818378508104686 0 0)
(0.4994466220185442 0 0)
(0.5018966129863452 0 0)
(0.4143205540786453 0 0)
(0.2795841101083704 0 0)
(0.1950265260782504 0 0)
(0.1050899185732428 0 0)
(0.05981430603890727 0 0)
(0.08830247836509955 0 0)
(0.1671928130828754 0 0)
(0.1811615193530581 0 0)
(0.2558459735564094 0 0)
(0.2959752607826099 0 0)
(0.3143331875846894 0 0)
(0.3540942200256821 0 0)
(0.4150834044931125 0 0)
(0.50844924130597 0 0)
(0.6840245529257423 0 0)
(0.7881406415952583 0 0)
(0.8139820107611416 0 0)
(0.7478785612778346 0 0)
(0.6579250201802982 0 0)
(0.4676820958396013 0 0)
(0.2724612000576281 0 0)
(0.2000487805061338 0 0)
(0.1373021411617097 0 0)
(0.1448730429712682 0 0)
(0.2476121461138847 0 0)
(0.4143799827612539 0 0)
(0.4895305507507155 0 0)
(0.5729951906938907 0 0)
(0.5901599273576874 0 0)
(0.5545371686135621 0 0)
(0.4921582445454877 0 0)
(0.4668475026463437 0 0)
(0.4009043367747093 0 0)
(0.356568484584435 0 0)
(0.3506701015423567 0 0)
(0.2709403059278865 0 0)
(0.2266712774929913 0 0)
(0.08665794136332727 0 0)
(-0.04770717592094692 0 0)
(-0.07705001840885613 0 0)
(-0.02322174803293023 0 0)
(0.08239332844968386 0 0)
(0.2321955649672962 0 0)
(0.4420115616607064 0 0)
(0.5581177906992286 0 0)
(0.5608012335965448 0 0)
(0.5541101940306347 0 0)
(0.490283414538754 0 0)
(0.3639650833665628 0 0)
(0.2693791920708134 0 0)
(0.2314353220685263 0 0)
(0.2025320932838467 0 0)
(0.2170467880986304 0 0)
(0.2536550906563651 0 0)
(0.2700901340898282 0 0)
(0.3073602961328266 0 0)
(0.3606914720387074 0 0)
(0.4115824900878787 0 0)
(0.5059300347768881 0 0)
(0.640638771522976 0 0)
(0.8668684170053 0 0)
)
;

boundaryField
{
    inlet
    {
        type            zeroGradient;
    }
    outlet
    {
        type            pressureInletOutletVelocity;
        value           uniform (0.8668684170053 0 0);
    }
    frontAndBack
    {
        type            empty;
    }
}


// ************************************************************************* //
