/*--------------------------------*- C++ -*----------------------------------*\
| =========                 |                                                 |
| \\      /  F ield         | OpenFOAM: The Open Source CFD Toolbox           |
|  \\    /   O peration     | Version:  v2012                                 |
|   \\  /    A nd           | Website:  www.openfoam.com                      |
|    \\/     M anipulation  |                                                 |
\*---------------------------------------------------------------------------*/
FoamFile
{
    version     2.0;
    format      ascii;
    class       volScalarField;
    location    "0.019";
    object      rho;
}
// * * * * * * * * * * * * * * * * * * * * * * * * * * * * * * * * * * * * * //

dimensions      [1 -3 0 0 0 0 0];


internalField   nonuniform List<scalar> 
1000
(
1.202381845525067
1.222961865975666
1.228573118175822
1.212225407449155
1.185150463940185
1.165484347758305
1.153766869309787
1.157789497891695
1.171521471256059
1.1945744964187
1.208547649027604
1.223158222992655
1.241840711419828
1.254272608882518
1.251706399661986
1.239006333020008
1.212991566014757
1.178398814282984
1.150424830408554
1.131381762846322
1.118747112623094
1.10611138261446
1.093455792657387
1.082583227865873
1.076775018056178
1.08581194209422
1.121014994270219
1.172912943542859
1.232809231089206
1.269115911816673
1.266331664932048
1.221614066151714
1.157063176953415
1.091901573028977
1.06499423275425
1.077646399271742
1.113788964587059
1.152906512510344
1.186931113663747
1.201439970546822
1.211327933634523
1.215655507280938
1.216585195337556
1.214310124487475
1.209287658251566
1.201144299161049
1.197393240624015
1.192980882868613
1.185270512026348
1.170614690513342
1.151213200708557
1.131884410775606
1.125268021071868
1.143621989429231
1.174121394145504
1.202132276306747
1.217820677461
1.227555931931547
1.234288800176498
1.233291574664918
1.222283989561382
1.189600926437816
1.146369237021422
1.1045196569404
1.082154926001763
1.090723995082607
1.128373168782139
1.176547224976112
1.206675189127332
1.218278840978136
1.215544220482619
1.20679180024827
1.202293917061141
1.204883332664745
1.213330945552006
1.211217297075854
1.200790215003616
1.158669228404304
1.105526207337363
1.077545790871549
1.06659182143758
1.084631692657984
1.125300218166109
1.187160941636638
1.236131906410973
1.263965351244131
1.268227130653594
1.257615809547942
1.235446420149119
1.209358214379249
1.182538215727215
1.169656846715406
1.164246485506966
1.168005020659593
1.172620858242265
1.173695487453206
1.157327873440811
1.129010034403926
1.093047946090664
1.078199228825683
1.091431388021126
1.120223317517419
1.160120504394385
1.194885176644838
1.220535407878496
1.230274216148
1.226355624709219
1.202586149921241
1.165636811822726
1.125497356879279
1.1112611589112
1.126970309538849
1.158709994930272
1.195375319977212
1.212974825465191
1.21655576890632
1.20605346791992
1.189768174469966
1.166993800001268
1.159466041271229
1.172014079963076
1.199554275977274
1.225364009022177
1.238215253284809
1.231928962858853
1.198718813674723
1.147996691411111
1.100605392861271
1.074810368226232
1.083477600926804
1.115429728240967
1.162177487288086
1.204242375046991
1.230053602729239
1.234827947424339
1.230931822839527
1.224084871835981
1.222667950549221
1.211526769891687
1.197573602517974
1.166616574755644
1.133228434149414
1.120834498886021
1.118572916080793
1.116596241772446
1.122252532664183
1.137142378545592
1.158681370961472
1.202420892954386
1.232023570028205
1.250067433800392
1.253926556219598
1.247569102345474
1.226362834607943
1.190787660628838
1.148496697500096
1.117278081833875
1.099595238325782
1.103951258587015
1.124726325928213
1.156869436955211
1.18423018971997
1.199541772328224
1.196605320431461
1.181178761074627
1.168203409734921
1.173257175786818
1.195673163090058
1.214889601827858
1.219108824563719
1.202470097949615
1.166416288833826
1.125333687406243
1.095425202209452
1.093016443887304
1.119652079619389
1.167833396984048
1.214317977167098
1.245620081182135
1.256356788784616
1.2602632509468
1.254816109887009
1.239627054606573
1.212661400769499
1.173169430107477
1.1343189414141
1.115964970704346
1.116019767224863
1.135421112568148
1.153625323041454
1.165510855559036
1.154947696538295
1.128956940148496
1.110462180744542
1.114704147176277
1.145495315546124
1.184729360042386
1.226445977043405
1.249697010270935
1.253842718261482
1.243275567116555
1.223290335884866
1.192046828263702
1.154719637354259
1.140558180819166
1.132821043012866
1.131422312943703
1.133922997921505
1.13811370493671
1.148217584588695
1.158423244988485
1.195690000515914
1.232585061451136
1.235839223393319
1.214488696159665
1.199456002964971
1.179983583158262
1.159839229820468
1.133387986440768
1.109309541795563
1.101955076874625
1.122370535036095
1.160878134586117
1.193492606729894
1.216988835807089
1.223409497286785
1.227501038326644
1.231563269643486
1.236467913391725
1.242169687823723
1.242946877021431
1.235950957751666
1.206741548127285
1.157639829437148
1.099789449811813
1.067994796967939
1.076591401159364
1.116509370611507
1.158898694827502
1.186620257090807
1.193338946125079
1.186872331113147
1.171648558067943
1.158097348470669
1.15224711312227
1.161641407249008
1.163748739003424
1.181985911428241
1.183606713764093
1.164012491386531
1.142182941547714
1.138091298066594
1.138831435313044
1.151291915327954
1.167180279581163
1.182333023627815
1.189252533257405
1.189310302661938
1.179467553048272
1.176148044574642
1.181152295703163
1.197539432784904
1.208121423871438
1.217424903083841
1.207804791747389
1.178996976380798
1.142032300530516
1.108962307113916
1.090826323779376
1.096908482178163
1.121090598854139
1.167839237376399
1.212981030526299
1.242621197866171
1.254420241409161
1.258833920812054
1.252904357158293
1.240651882278735
1.208648631837304
1.168944005901247
1.128394748387645
1.109798204084925
1.115205785846288
1.129186797907716
1.141350758329746
1.135029303292102
1.123099663954211
1.113862186954746
1.124230689538666
1.161515301448947
1.207557772786235
1.244966745346865
1.266055810992939
1.27295641361677
1.269483449002822
1.250150186937524
1.222744970584937
1.177960704661942
1.150326840995232
1.128588788702574
1.120619377068372
1.121378036398501
1.13178166916607
1.149063028545512
1.184298508762439
1.221561116409243
1.22707822314744
1.207225048329522
1.199854543404081
1.1958220998475
1.196153790244934
1.193861897846969
1.172830376256236
1.136760393531509
1.100085670860826
1.072638949723768
1.071103965676858
1.096434547230854
1.145956322990747
1.201597956257675
1.235581800020409
1.252891611032977
1.259684613884717
1.261511826398169
1.247126038071714
1.214748046461602
1.149343164518012
1.096209087789306
1.066935109746795
1.060500918398241
1.077999296861687
1.111998253569539
1.163284558277997
1.20964801946957
1.229320955315533
1.22863678412781
1.213910886057305
1.195301721910782
1.178854891118297
1.166151970196997
1.161686414770121
1.144896211958494
1.144171698514889
1.150267664567915
1.163246354371169
1.174031030766435
1.189193383262379
1.195620895883384
1.203816106278447
1.206559878525652
1.200283861108491
1.176290570309766
1.138607662940496
1.106454583827655
1.094863779591874
1.12018616252378
1.174209523170029
1.213307148136057
1.212111577888904
1.182845644173193
1.15536600534874
1.13188879057454
1.123429865008833
1.120971382420322
1.119340068433303
1.118770213970691
1.12649725247968
1.149322476082447
1.194812700424882
1.250398585989258
1.271092812578858
1.249056936139687
1.192420538024177
1.145182201885067
1.132959818738132
1.139339543579296
1.152142023552341
1.166393300445927
1.171771693301623
1.166441478212983
1.155067237385115
1.143704146820449
1.134619079403485
1.13667480267371
1.161613101698532
1.19643266814025
1.228183177085947
1.231984961906818
1.205503797364752
1.1643211610486
1.120402630180037
1.100873448259629
1.102593578487519
1.122879006607879
1.148345493786634
1.164718758485218
1.16695721503535
1.156608764067135
1.155591583890427
1.168691561281569
1.196925724959121
1.212203351678459
1.225429141900726
1.221456720779052
1.198429595117282
1.165025309852967
1.133373984062258
1.107328758248205
1.094294400016614
1.091080917037744
1.095092288160049
1.113074790261965
1.140323902439384
1.195530648093795
1.238504154792758
1.268919377654909
1.271279945385938
1.250843885511298
1.211004700914604
1.146289017891637
1.091704721508402
1.061895461350814
1.05807481378162
1.078075607211502
1.117549378323326
1.175412945196861
1.222181553871889
1.234384684112052
1.221329452075917
1.195882069059543
1.171799925102525
1.157121088183635
1.148334502748432
1.145301694865776
1.145096029293079
1.153572794200016
1.157879297962255
1.156208668360469
1.166050535523381
1.164598511830194
1.164545422226542
1.159825170185242
1.154895089600682
1.158827481856344
1.174298649032173
1.193786009525458
1.227325824667557
1.232137940782693
1.20219408899377
1.179986010566971
1.163411026627082
1.136187873676889
1.111204119365921
1.089221161852803
1.075676252825092
1.079497750798633
1.101208131414511
1.153904146025097
1.201436794394614
1.227983344492931
1.239375206743468
1.237458840163573
1.23442322780085
1.228356102794856
1.209895493808974
1.168490561193154
1.121660673091605
1.080668823540648
1.074981212815777
1.110173680986434
1.165398863650201
1.203340481216202
1.203676712463363
1.183527657605032
1.161482683427864
1.147414023785434
1.143257214677892
1.140678642639158
1.136600303636254
1.132656571540987
1.134182912247037
1.149064407810568
1.176372410537872
1.205209900488232
1.198589404574786
1.166208793710444
1.155180743313545
1.145344771037788
1.152271374772619
1.163105147964805
1.172353431876638
1.175820304723291
1.173785350476356
1.167071173750239
1.147712754002705
1.124730675216397
1.10455099150076
1.10548422629107
1.119368025773781
1.136503119008295
1.146011372893542
1.149780703218703
1.14748505513531
1.143126984791552
1.137767710917892
1.132514826142361
1.129111513929223
1.13160717419466
1.142748891038499
1.159220913580329
1.172323633126828
1.176094490007003
1.182371578649483
1.173481827629165
1.155655840955926
1.14827913527917
1.154237699787106
1.156425180581685
1.15063128278305
1.135381147731523
1.117719042832812
1.104351436660974
1.10665077224929
1.125781679844238
1.1531030813929
1.179406739120282
1.194681202842975
1.192831549007764
1.17462909550764
1.152150619461466
1.121384437247438
1.112852224025952
1.122897418059517
1.141573581964788
1.147386305130029
1.150757877699495
1.154005225288199
1.15950178577027
1.177388328404801
1.190730951786392
1.230439473699282
1.243572783033057
1.207750885761566
1.154732628274117
1.136092330245148
1.121291229689726
1.111815606273315
1.102332175399985
1.094927952398945
1.091159201089004
1.095880387447573
1.111247636164437
1.156295067611241
1.199625907712632
1.221203551363073
1.231993727104029
1.234124610464648
1.229838553161536
1.214888167474003
1.180494775760676
1.12870156931123
1.081809201817521
1.058647093615338
1.063490465368997
1.093788957893385
1.148047298724935
1.18823152932555
1.192172177051146
1.177854411272845
1.162356033091278
1.155725274836502
1.155383091206283
1.156973301367737
1.157631247718521
1.155137636057225
1.145603210741735
1.129551230615987
1.11260218573168
1.108325071393249
1.120753029931129
1.13872585250628
1.14836331768618
1.15393887177387
1.154815862512797
1.154218888918854
1.160731467148146
1.15817261098053
1.167313451500382
1.164345921212178
1.136764629559895
1.097396773476353
1.08019450903476
1.064178155030671
1.069994557043369
1.090768095261811
1.127382478294354
1.163944029593962
1.188152967421891
1.195482530537829
1.190780886279454
1.175677578744917
1.159174686648231
1.151014763215633
1.157047757032771
1.158793726036788
1.17691521485502
1.174600986824966
1.149396154762018
1.132977184395872
1.124844693846358
1.120514298299842
1.116201310157376
1.11363516722417
1.113270393458621
1.110491486545293
1.123288354285426
1.158102704113431
1.182305552995366
1.199468376183942
1.199312575844546
1.184656077307912
1.152099667079759
1.112714332948369
1.072262484143723
1.06129594372098
1.076775001191505
1.107044432415087
1.130483429966523
1.141478916505918
1.145072442565273
1.149808313361788
1.163295486352555
1.185596378776085
1.205793806686553
1.186154954694022
1.138559327887325
1.121250165702166
1.100092980075123
1.09209430070579
1.09139348516842
1.09779418547053
1.115621886650892
1.138100864990994
1.188656356435804
1.219727026927601
1.241198570303313
1.239220143602835
1.220659655895241
1.186760369353521
1.136119262236714
1.078742760883584
1.042920315305295
1.029388416110481
1.054227768432176
1.097681842898489
1.156662131958829
1.194670510526001
1.210644417230571
1.20794930554124
1.205046926780435
1.198806860049171
1.181092826492677
1.146089977256
1.103943094014105
1.060085311050923
1.056322850859783
1.083048953526753
1.120128933509421
1.146838907916356
1.15442236202499
1.152328276035871
1.148890861808826
1.162191700098334
1.17834778916105
1.207866431523291
1.214305192466057
1.177086252997112
1.118168038715824
1.089440787021791
1.074446139877227
1.081909036102713
1.10497134332446
1.137868546299682
1.172487103546271
1.204234686063157
1.225014140957097
1.225362194703544
1.202118488852444
1.161505136413088
1.109096445041495
1.070635095298766
1.074770090936524
1.100884555893478
1.138218035117976
1.163187332939203
1.176465820120793
1.179528224224158
1.175728241943782
1.177854436484562
1.168687961833568
1.175345693229202
1.163804513982616
1.145093891247809
1.139807046981358
1.138200057119601
1.141354900646331
1.149407359132486
1.155041823047882
1.156531386617226
1.163620999711911
1.160165921769378
1.165461643687337
1.157344599515895
1.145179296852907
1.143621968101896
1.145974529568798
1.150130543876364
1.15882207750104
1.164220107969735
1.16603181400427
1.1503936721038
1.12885747196316
1.107029733779532
1.102801053424246
1.113439568249489
1.140312150217258
1.156514115420735
1.172279814328942
1.181406686421434
1.18623817481222
1.174318557603144
1.152385390189773
1.113482946859729
1.086008318376798
1.081625482286428
1.086585161671047
1.109827662307149
1.154014207134729
1.193031034998858
1.218980949849302
1.223566545345796
1.1950383198486
1.150149942447468
1.119349318258916
1.097463489421229
1.092570365374724
1.102033891599251
1.128174991137939
1.150943420191714
1.188096608430266
1.201308752058634
1.182049422128895
1.146169423353527
1.120622687937026
1.10315409426633
1.099698332405207
1.1080139279737
1.133699966996202
1.153347258580167
1.185868862264023
1.191204487027755
1.162486657599485
1.127875480051305
1.104794775617381
1.093328132683449
1.091699938221474
1.09728070721562
1.115328806277216
1.141565466279748
1.176377059022963
1.192566178534226
1.178670679046973
1.137201730640002
1.09550188525741
1.07090250402666
1.067219639101346
1.085724689488511
1.117690682743524
1.155029416720182
1.186745301955454
1.207411929908783
1.208026384513782
1.191548043752869
1.155866938722962
1.111679588915266
1.069661203891098
1.061593633385683
1.086414227978481
1.127862967634127
1.174239053043777
1.200572693855222
1.212261764367842
1.209703557084006
1.188063331672163
1.150172062638493
1.103366110159449
1.071178257985654
1.068198180296285
1.096211964826703
1.141415247157798
1.186326693993912
1.214333739024988
1.218237625348132
1.197343303002276
1.161030000018183
1.117344057879115
1.083534298910917
1.07023824678343
1.078116197375848
1.102676531636164
1.131418717145681
1.145142386233993
1.151306583008767
1.146178462019706
1.141676028662564
1.141946883838255
1.137685020701052
1.140537290728592
1.134768095236104
1.121342382785672
1.110430131037603
1.108571041478732
1.102828862323837
1.103834935824942
1.113282219751876
1.136333262013737
1.163129139423945
1.196190067805972
1.210321576833182
1.187680118447616
1.13649997235509
1.106328006076273
1.083265609849457
1.075560113170362
1.081953325917452
1.103527479420337
1.142224858490372
1.180825108131746
1.215412315714588
1.220678841518763
1.183701870180639
1.131514665280536
1.102675422328037
1.086671352243839
1.086719517311084
1.09286658332765
1.106012152685025
1.131633219190796
1.157277990442834
1.187614555126393
1.186240210861768
1.1528480631639
1.128399412727221
1.111641513247364
1.109644999856237
1.117024590614586
1.126570026141805
1.133940061108903
1.124574961300193
1.11793911330958
1.104054997016803
1.095881288100013
1.096826689183546
1.10872591442408
1.112066603735278
1.118252862369363
1.127793719766335
1.141976845046664
1.164930205636868
1.1787998484499
1.193025867848205
1.176143840232699
1.124353387454501
1.08682418129188
1.068360944984001
1.06284184900627
1.071390856154766
1.094933150359195
1.131632137357039
1.168999868666905
1.197649651061631
1.207485744740874
1.193279752991458
1.161004076887654
1.105846069787286
1.060379557849319
1.046264806563806
1.06086727067011
1.096254283454641
1.138031857998735
1.173367251695491
1.200395647789366
1.203543358550941
1.186338510262962
1.154568387399166
1.105698805383495
1.065118544418559
1.057041171382415
1.073734364750266
1.107566021944225
1.148432193069323
1.183467517601988
1.19648492088095
1.182761902775555
1.153296164344687
1.104577063976952
1.070948116225871
1.060414601016078
1.069085208773077
1.091849371946221
1.122845108693752
1.149701217743431
1.166030807184077
1.165181189109511
1.149163718046737
1.123708082437391
1.083306036002058
1.056732775648068
1.057505139099872
1.070010782309811
1.086883250705783
1.101873031458501
1.112034496010354
1.115806508921445
1.115278510439961
1.117176240498875
1.128891243758365
1.1507742832728
1.173212702352667
1.189565417753707
1.188788125664776
1.160907505164263
1.117191448782604
1.094563987279428
1.082118568908282
1.084274387547248
1.09474878346795
1.104628319108952
1.120856790247519
1.129898048226702
1.124541705053773
1.114887106168005
1.115175755657663
1.114693413111036
1.120386227873588
1.123904120756826
1.118455914529144
1.101238654099228
1.077497251993277
1.059778419981541
1.061608798681368
1.073495899041067
1.090870265089478
1.102432213420024
1.112880917279534
1.125436947132753
1.141382567981696
1.15513977094525
1.160901753147207
1.163320250459867
1.15487926220398
1.117733461661801
1.082389101611106
1.07640964867592
1.073790424964711
1.078793745786697
1.091436843558515
1.111773804535254
1.139859837955166
1.165754358617308
1.173640968449652
1.178501760686858
1.168197926704258
1.129345871530266
1.087591447908862
1.076491174441771
1.072826612552807
1.079729112805226
1.09955890998687
1.133846660700375
1.163913770650297
1.174026505826055
1.171472130821023
1.158747153156831
1.130899385993779
1.098265709046839
1.091108850286949
1.095958320437194
1.105586690711227
1.123101383339641
1.140160565057764
1.143442591938449
1.139774037113311
1.132065967006661
1.11444685665204
1.103806452611446
1.103379374911433
1.103891931702934
1.110307479731908
1.117683965273562
)
;

boundaryField
{
    inlet
    {
        type            calculated;
        value           uniform 1.176411716172193;
    }
    outlet
    {
        type            calculated;
        value           uniform 1.118280681283975;
    }
    frontAndBack
    {
        type            empty;
    }
}


// ************************************************************************* //
