/*--------------------------------*- C++ -*----------------------------------*\
| =========                 |                                                 |
| \\      /  F ield         | OpenFOAM: The Open Source CFD Toolbox           |
|  \\    /   O peration     | Version:  v2012                                 |
|   \\  /    A nd           | Website:  www.openfoam.com                      |
|    \\/     M anipulation  |                                                 |
\*---------------------------------------------------------------------------*/
FoamFile
{
    version     2.0;
    format      ascii;
    class       volScalarField;
    location    "0.019";
    object      T;
}
// * * * * * * * * * * * * * * * * * * * * * * * * * * * * * * * * * * * * * //

dimensions      [0 0 0 1 0 0 0];


internalField   nonuniform List<scalar> 
1000
(
302.6349022159438
304.6396085235073
305.1237851814681
303.4505155348485
300.660867221065
298.6284687257949
297.4312121393502
297.8353131389204
299.1906272983903
301.5152045572155
302.9512730981008
304.4346083657097
306.2869120409111
307.5012951036243
307.2370156788667
305.9786248568791
303.3942104003677
299.9116188648807
297.0479039502841
295.0735757421731
293.7486961167398
292.4141078624563
291.0704528596236
289.9153219970791
289.3003533474436
290.2909332703765
294.0430734570393
299.4287703802535
305.4574770228157
309.038011429996
308.7670422429505
304.3286599925551
297.8060907003724
290.9931311674137
288.1040875238921
289.4778148576397
293.3155604925126
297.3794557026029
300.8703534268969
302.3510204354644
303.3518222905428
303.7896607510416
303.8854111234961
303.6667423132218
303.1685701699924
302.3458394894839
301.9613282700752
301.5156708832551
300.7364660522676
299.224899251373
297.2065885517038
295.2098163033348
294.5359770849185
296.4631279585962
299.5724464620345
302.4184045841324
304.0346579766093
305.0229321106445
305.6878233210433
305.5751072682299
304.4556843991322
301.1562835024405
296.7270514572598
292.3433271101197
289.95537949649
290.8758928592137
294.8604479746999
299.8385924704762
302.8919212607177
304.0555137770658
303.7828827199343
302.8981614873203
302.4362403462944
302.6841984772545
303.5187165789953
303.3113887950904
302.289072772931
298.0295666726332
292.4561889058915
289.4538958782545
288.2670763133003
290.2142576055494
294.5259514206635
300.9102770195501
305.8295904918044
308.5798419505076
308.9900093251106
307.9449424154495
305.7511535293731
303.149632883205
300.4386269242863
299.1206596585749
298.5642605894148
298.9510642113251
299.4256394726773
299.5303501086839
297.8362697296179
294.8950141679217
291.108528622062
289.5085226542102
290.9209865109816
293.9515194361041
298.092408763766
301.6500441871043
304.237217754548
305.2041913737425
304.8084010380767
302.4232952838448
298.6779470742411
294.5306220690566
293.0305421368474
294.6833441140448
297.9699510341464
301.7172137531371
303.4998066596212
303.8574880541636
302.8022811615481
301.1508613967476
298.8367518653291
298.0736765002533
299.3635653773988
302.1277429448751
304.7114096861011
305.998520968947
305.3897709697899
302.0636193284197
296.8693815027793
291.8925257277489
289.1284948658916
290.063647757851
293.4563201777344
298.3160511508224
302.5878626819581
305.171731007378
305.6555902840964
305.2786337285318
304.6045039793452
304.4573856331402
303.3246198475208
301.930646505995
298.8218022159398
295.3509470820724
294.0378113502188
293.7990381962047
293.5876652223814
294.1805344032493
295.7396213013876
297.9849645514171
302.4381243355757
305.3920839639425
307.1724475132734
307.5528133094566
306.9300682065756
304.8177076439035
301.2378912180537
296.9092769872012
293.6505186047366
291.7747561797281
292.2364430444186
294.4230122250313
297.7607081554519
300.5563397419053
302.1027735808994
301.8075342764253
300.2475609921632
298.9291294665734
299.451105397434
301.7176689138576
303.6418177490414
304.0594928427209
302.3904470672182
298.7249466737622
294.4728469739239
291.3191247824631
291.060314302259
293.8810139584531
298.8752951876547
303.5851806015664
306.715175800257
307.7786074461874
308.1535407857938
307.6143464022539
306.1094339631907
303.4245481785242
299.4342082972407
295.4211502094118
293.4898214108424
293.491528038227
295.5259249404313
297.4141685235469
298.6369977715349
297.548907273381
294.8487902529222
292.9012015146697
293.3555635182893
296.5689237314421
300.5933966884103
304.8091857093307
307.1226884751222
307.5146737378132
306.4611314423489
304.4771377167055
301.3502828119185
297.5375567750771
296.0570957393555
295.2419377111335
295.085860809924
295.3424209987923
295.7773276524003
296.8254416309238
297.881100768248
301.7058845442339
305.4098379547048
305.733091989053
303.6132347973574
302.1046155294856
300.1229084610008
298.0417039189309
295.2903084269228
292.7730546632724
292.0002529573504
294.1630580958734
298.1464094447764
301.4627420273807
303.8305249825075
304.4792335743034
304.8945588070447
305.3071616458383
305.798546333896
306.3569078659426
306.4240318920723
305.7211703813064
302.7868782905103
297.7877260968545
291.7462319813239
288.3307302181163
289.2615919990989
293.5047521567726
297.914311964254
300.7584166669327
301.4473179597475
300.7998310967753
299.2524060709086
297.8554535279808
297.2348796353471
298.1855478713613
298.3963280442365
300.2593430802398
300.4268194085915
298.4259974466379
296.1650011709243
295.7430034308341
295.8288985571648
297.1294555760134
298.7720821112351
300.3270009386837
301.0301842214189
301.0309330452877
300.0283833779799
299.6997101854747
300.2155193375702
301.8530929630825
302.9113329543796
303.8459694577788
302.8824478226019
299.963386824468
296.1660336523451
292.7179901036019
290.8030891072017
291.4596317928416
294.0213746117238
298.8632518264956
303.4163887190188
306.3549934839169
307.5138356340101
307.9416348696311
307.3671154028322
306.1583253792266
302.9600963856927
298.9377102621089
294.7491843761036
292.79348969196
293.3693948243335
294.8442829044172
296.1131338097593
295.4565635315402
294.2114318612284
293.2427429788109
294.3444202211486
298.2249283876208
302.9028008585671
306.6348773432276
308.7055614755066
309.3636436242029
309.0211917552393
307.1281004829463
304.4264999985726
299.9194669561269
297.0684695154147
294.7955040853227
293.9500539859054
294.0273970540634
295.1175517026467
296.9121316267229
300.5456125945465
304.3050247373665
304.8560090294806
302.876223209013
302.1266379993461
301.7117189517888
301.7394522194191
301.4969431457675
299.3501498218477
295.6280447762703
291.773211720367
288.8424234518491
288.6816701036948
291.4084982028954
296.6271651681998
302.3112569183594
305.7035073054402
307.406723298891
308.0633045636179
308.2473677025282
306.8433378640945
303.636056023405
296.9891698158995
291.3757686967491
288.2186580796451
287.5128497446032
289.4076395334589
293.0408708131007
298.4124650957874
303.1133493408794
305.0664425407826
304.9839896649812
303.5106565887976
301.6370213766944
299.9743967957425
298.6826033127844
298.2133549470191
296.4893748516668
296.4497426030659
297.0918481320635
298.3955719944116
299.4931984367054
301.06775920684
301.7296393199223
302.552939076302
302.8195140448843
302.171554838037
299.7135463658776
295.8291590904256
292.4625344153096
291.2240635018351
293.915628495368
299.5088812522849
303.4631760843612
303.3398144696698
300.3964527985435
297.5819643021463
295.1502972981488
294.2680356246411
294.009995229995
293.8369825983906
293.7749016562217
294.5852234817198
296.9650893514503
301.632235916851
307.1499288967009
309.150383093806
307.0003033329795
301.3908778587428
296.5240564443911
295.2439401580192
295.9048097239217
297.2284194136997
298.7023941131371
299.2575908551038
298.7138622393534
297.5484475265004
296.3777713967282
295.4355187840579
295.650930215765
298.2306330225216
301.7782020434157
304.9644869171166
305.3342489138412
302.6773383570052
298.4929684889195
293.9347769695644
291.8702994916121
292.0537154829839
294.1926306850127
296.8520504063422
298.5421894585229
298.7680772316576
297.7056111018662
297.6158461875192
298.9897717159316
301.8262468557817
303.3508939709894
304.6788705928685
304.285585917335
301.9735016862459
298.580276145371
295.3043483600214
292.5573113474738
291.1583467714021
290.8076633001564
291.2368831879826
293.1463668197666
296.0062469269735
301.6610364195377
305.9403702783465
308.9220701475355
309.1390803963504
307.1341248566451
303.1885166547896
296.6084596774188
290.8555530143321
287.6323334776843
287.204447353273
289.3571402100974
293.5649818027511
299.5984810656456
304.2965927612705
305.5016433041441
304.2067861177001
301.6549375700428
299.2003608852741
297.6861089764712
296.767581440502
296.4340416830751
296.4305465104874
297.339706469282
297.7906529928304
297.5802112699893
298.5786105711497
298.4531492279144
298.452137218079
297.9731523521892
297.4755793509756
297.8895564350806
299.4648615993759
301.4461748478271
304.817219298003
305.314383731355
302.3386573230331
300.0762697327168
298.3867636169339
295.5595045152139
292.9296074753082
290.5915504966568
289.1369416762969
289.5483880977614
291.8777675146238
297.3918996015969
302.2171155451492
304.8746474631066
306.0297151924435
305.8647939822715
305.5778927536371
304.9660056959112
303.0842777523264
298.861417227874
294.0057768329215
289.6581169199969
289.0353639342738
292.8016498455057
298.5676127818579
302.4275317407594
302.4466845266276
300.4098286776847
298.1609346961936
296.7166656583071
296.289636863387
296.0194303872233
295.5872980857515
295.1630003248642
295.3070188962657
296.8367157290479
299.6635045466813
302.5972658759656
301.9456668130435
298.6678912361181
297.5259887415768
296.5188629018515
297.2330677099798
298.3412766112471
299.2941966819116
299.6546973762648
299.4455250427014
298.7282782708904
296.7296554949937
294.3785779335684
292.2321444675051
292.3001785883835
293.7573492976275
295.567162185602
296.5468330333468
296.9255394169918
296.6780180390932
296.219318052008
295.6689560468756
295.1321937330508
294.7814612189101
295.0431363204864
296.2041683404453
297.9151117084563
299.2709933161806
299.6694367725643
300.3214453111642
299.4109330516312
297.5484605759827
296.7623839360816
297.3690109242223
297.5906008597374
296.9952452357756
295.4138403709107
293.5773725680403
292.1791802400463
292.4289870435491
294.443082972179
297.2805760488885
299.990625525847
301.5550810025456
301.3781867477154
299.5131568480468
297.1974625508585
294.0207859052532
293.0980930803627
294.130464334785
296.0779813727376
296.7032278670966
297.0677802277825
297.4131475196758
297.9851638329574
299.8217273911876
301.1799947913095
305.1491291616164
306.446046193079
302.898866689215
297.5115423993525
295.5701573945407
294.0191756152639
293.0150774180383
292.0018569099482
291.2088830057731
290.8036543931764
291.3053654830766
292.9408667553996
297.6398447691025
302.0415875097352
304.2051738428059
305.2855435951893
305.4939926493621
305.0757073253174
303.5891283241443
300.1206898394088
294.7801069664355
289.8058021686488
287.2931474556799
287.8138482447208
291.0704181352666
296.7875086900958
300.8860023060158
301.2634963975063
299.8061272278081
298.2211733230176
297.5381714882797
297.4992024194501
297.6618362382249
297.7312050804208
297.4744890092107
296.4749163807215
294.8193519639576
293.0891955152247
292.6341600491868
293.9056795515917
295.7785578246412
296.8030116542271
297.3775745848416
297.4612609365935
297.3918989895623
298.0492028427341
297.7759380813852
298.725505902763
298.4485019887481
295.6151614911821
291.4747326745348
289.6277544622167
287.8933686718558
288.5216556029045
290.7518779612855
294.6219196588643
298.4137174927421
300.9000103283315
301.6566647759326
301.190544137202
299.662417143713
297.9709024493964
297.1145774637369
297.7114104667053
297.8954504724226
299.7739046550259
299.5459469293129
296.9483448956655
295.2252436079247
294.3799989511447
293.9245677556923
293.4625977390712
293.1758651882386
293.1226459565769
292.8267665843268
294.1787612487344
297.7666055510275
300.2411267529621
301.9974357422557
301.9831104784858
300.4798576449123
297.1258921044494
293.0270665162022
288.7378842802473
287.5436237968222
289.2032652621506
292.4165235532822
294.8824632287926
296.0370768678559
296.4208092433161
296.919613312096
298.3098960660607
300.5912682742327
302.6283420707209
300.6420907245061
295.755441324671
293.9244015469716
291.6871112351224
290.8333728912161
290.7542818315947
291.4348315198965
293.3201267641147
295.6806217499007
300.8640795695124
303.9725314175132
306.1041110481571
305.9077135575012
304.0619398533124
300.6556576016035
295.4634668302918
289.3939306023602
285.5015055255838
284.0029865314705
286.7319859165642
291.4083731335135
297.5690167098454
301.4476029729452
303.0722277475723
302.8204262368278
302.5318774287041
301.8881544411442
300.0743071348325
296.4826254140731
292.0901069669056
287.4165783979346
286.9910115401403
289.8490416616221
293.7735131273292
296.5844211776251
297.3799345026
297.1665543068873
296.8099641042508
298.1756844533478
299.8243603601111
302.8073542795546
303.4650546463096
299.717207508852
293.6054256595073
290.5455831085304
288.9341220263678
289.7425805698825
292.2116621864875
295.674565023378
299.2550827170498
302.4840628972897
304.5733248225424
304.6076296263684
302.2503448716855
298.1039209051096
292.6636001346775
288.5639577695709
289.0146112510872
291.7980214988353
295.7178215355516
298.3074793214317
299.6698111410939
299.9845039499581
299.5998448768835
299.8034433140655
298.8679679562328
299.5806299537947
298.4000331930919
296.4448681947302
295.8806909714597
295.7238214721158
296.054773389615
296.8951602138613
297.4839214407122
297.6403387298129
298.3498268992434
297.9887360661267
298.554072322588
297.7125615293047
296.4213881832582
296.2385158534086
296.5024633856925
296.9413802965748
297.8342199315837
298.3806161203594
298.554444781432
296.9311802163787
294.7176359699629
292.4671423268444
292.0056839940323
293.0886315605052
295.8817353369998
297.5792967568981
299.2278461934964
300.167215306624
300.6517503796521
299.4269421906483
297.1709949350691
293.1215031668803
290.1860340389925
289.7112635924935
290.2469740554883
292.7257220355901
297.344864919687
301.3270767250385
303.9240778688512
304.3715370509593
301.5116199436582
296.9308253151808
293.7279474339791
291.4180787982826
290.8950897151661
291.9040020592527
294.6669989283908
297.0360947404656
300.8213384667108
302.1433923886084
300.1949552590989
296.5142994766575
293.8624268950175
292.0230997693885
291.6535144724536
292.5263081838418
295.2122867339646
297.247546531013
300.5674750039075
301.1101657192737
298.1890427301713
294.5955070245234
292.1720899500016
290.956615779381
290.7841148649499
291.3834346100646
293.2951804952531
296.0317815366914
299.6044903124843
301.2424068797818
299.8353106694785
295.5720521657378
291.176427024337
288.5422915969257
288.1474429793834
290.139742056637
293.5265515128987
297.4204005187833
300.6872093418404
302.8031836617586
302.8797818602411
301.2024555739795
297.5522242560608
292.9627226151181
288.4900745836794
287.6074277613623
290.2684303727798
294.635486923356
299.4385343326805
302.1245865280429
303.294367589765
303.0337334263223
300.8371256638664
296.9571336850057
292.0655566668767
288.6230545252877
288.2974829600603
291.290511004425
296.0315126417649
300.6623025092875
303.5238877484291
303.9237216626198
301.8091709331243
298.0946538396549
293.5437346523985
289.9480229241973
288.5100079384043
289.3581581688737
291.980920432204
294.9953643729046
296.4257193640832
297.0801403108205
296.5647386721907
296.1022724783159
296.1150654221355
295.6536794146959
295.9542159234214
295.3630473033669
293.9556524578268
292.8002520766833
292.6120050485611
292.0141320146773
292.1344086758178
293.1451222797548
295.5643783671225
298.33019356351
301.6948209841814
303.1153253591498
300.8375729089073
295.6029797289862
292.4166728121045
289.9606193797377
289.1351177477418
289.8267471639261
292.1250561054334
296.1840487499199
300.163801281718
303.6553107241389
304.1808646368281
300.4618055279936
295.0786668582544
292.0382084923726
290.3279341857442
290.324916474812
290.9729853744285
292.3611784712537
295.0526112033911
297.7346553412409
300.8401320381229
300.7063757373251
297.2928082944449
294.7231112667715
292.9585217954659
292.7481823748051
293.5290618529755
294.533562591327
295.3026131635564
294.3216324564918
293.6388841719848
292.1796766418935
291.2883479051286
291.3619993557196
292.6315644995703
293.0025230599533
293.6618737797989
294.6638379501509
296.138970760667
298.507921985269
299.9297970299907
301.3826707180183
299.6783986686584
294.3490096515744
290.3283111020915
288.3372244010982
287.7439894136609
288.6793162913654
291.2159379574543
295.0948516440762
298.9630054519722
301.8779581389519
302.8654626287225
301.428719903294
298.1364035959751
292.3955942442643
287.5125508037981
285.9689132053041
287.5642171098537
291.3605935598413
295.7622853689439
299.4205346306969
302.1808815975899
302.5003512536346
300.7518322752408
297.4986989898081
292.4014782831165
288.0522266931882
287.1676694376033
288.9697002340806
292.5777324378423
296.863975417263
300.4677999740418
301.7820506127362
300.3816511215297
297.3592388588809
292.2714388356495
288.6631458984919
287.5189095145575
288.4583736413265
290.9011123112203
294.1883716411015
296.9953886271607
298.6828609534602
298.6002134423314
296.9467842561856
294.2958930713375
290.0268438056623
287.1465384015259
287.2296797150141
288.5860007109426
290.4045230108043
292.0094538108348
293.0944261828439
293.4996379993759
293.448012261749
293.6548864109594
294.8891643406914
297.1612363825504
299.4664417722613
301.1283159301576
301.049471548091
298.206146109156
293.65296153028
291.2459917244803
289.9101256733351
290.1377440812767
291.2559172183633
292.3030276513211
294.0159290464567
294.9616890092759
294.3964030365903
293.3751673311907
293.4114048774092
293.3716600551659
293.9730553116688
294.3398821361969
293.7590795172472
291.9401338384893
289.4170939622603
287.5009059617603
287.6958625279999
288.9723661882534
290.8343916786475
292.0703767407583
293.1837767743746
294.5147156527743
296.1845931601844
297.609762506836
298.1981149837582
298.4486696211604
297.589303641782
293.7280687931414
289.9478569783855
289.2938794183343
289.0129654849567
289.5563152879647
290.9186626514536
293.0900606734007
296.0503317886019
298.730966991237
299.5403568615122
300.0422879534533
298.994244527242
294.98853845352
290.5520844667982
289.3555273864642
288.9655050557533
289.7127345064142
291.8350404272292
295.4593758381213
298.5725800325473
299.6056126539044
299.3457816653852
298.0397293192499
295.1548327931681
291.712357020675
290.9408837598364
291.4575665830494
292.4815404719971
294.3319649560889
296.1140505292539
296.4526856610958
296.0731541327947
295.2750768024104
293.4404952248588
292.3240073834297
292.2982068570682
292.3664905182033
293.0666891762899
293.8965505864647
)
;

boundaryField
{
    inlet
    {
        type            fixedValue;
        value           uniform 300;
    }
    outlet
    {
        type            inletOutlet;
        inletValue      uniform 300;
        value           uniform 293.9477456696418;
    }
    frontAndBack
    {
        type            empty;
    }
}


// ************************************************************************* //
