/*--------------------------------*- C++ -*----------------------------------*\
| =========                 |                                                 |
| \\      /  F ield         | OpenFOAM: The Open Source CFD Toolbox           |
|  \\    /   O peration     | Version:  v2012                                 |
|   \\  /    A nd           | Website:  www.openfoam.com                      |
|    \\/     M anipulation  |                                                 |
\*---------------------------------------------------------------------------*/
FoamFile
{
    version     2.0;
    format      ascii;
    class       volVectorField;
    location    "0.019";
    object      U;
}
// * * * * * * * * * * * * * * * * * * * * * * * * * * * * * * * * * * * * * //

dimensions      [0 1 -1 0 0 0 0];


internalField   nonuniform List<vector> 
1000
(
(-6.554110802561815 0 0)
(4.041656148142242 0 0)
(12.8226898434297 0 0)
(22.95633205077595 0 0)
(26.24987756502112 0 0)
(21.04230113878686 0 0)
(5.795164578340445 0 0)
(-9.934801477518352 0 0)
(-21.7085545395268 0 0)
(-22.92682738280509 0 0)
(-16.87387106264187 0 0)
(-5.934186406259886 0 0)
(4.997736165208865 0 0)
(12.56210498643638 0 0)
(15.83952998843927 0 0)
(14.54871975279194 0 0)
(9.299387018705515 0 0)
(1.055773509117991 0 0)
(-5.738004275318018 0 0)
(-9.730872472578492 0 0)
(-10.91302603987403 0 0)
(-9.433790340973555 0 0)
(-5.221277608530453 0 0)
(1.701271774623324 0 0)
(10.34191404873044 0 0)
(18.06104992550006 0 0)
(20.06394456331395 0 0)
(17.19686931042145 0 0)
(12.64723576742101 0 0)
(13.4387251568182 0 0)
(9.648294186668826 0 0)
(12.30386186253742 0 0)
(4.85268332446212 0 0)
(-5.643624856496985 0 0)
(-11.64094178051469 0 0)
(-13.97399013165085 0 0)
(-17.71168047875539 0 0)
(-19.69670542263299 0 0)
(-16.59165531829046 0 0)
(-9.148111546305488 0 0)
(0.3452264361575523 0 0)
(7.593334778665834 0 0)
(11.62718702469148 0 0)
(9.325365904981659 0 0)
(2.444870741293218 0 0)
(-4.137042970324108 0 0)
(-6.562107716022958 0 0)
(-2.872858632784216 0 0)
(4.423769395231091 0 0)
(13.93100022926157 0 0)
(18.68330575975644 0 0)
(14.5623249307142 0 0)
(1.94393717586653 0 0)
(-14.75353268429616 0 0)
(-26.74091633346731 0 0)
(-28.10793761861268 0 0)
(-21.82474734062318 0 0)
(-11.65646582020152 0 0)
(-1.584408020251503 0 0)
(6.956944010090228 0 0)
(12.83860201925595 0 0)
(14.76576494657592 0 0)
(13.00919479595995 0 0)
(8.929392308736455 0 0)
(4.769925252490056 0 0)
(3.240422593359547 0 0)
(-2.485713595882178 0 0)
(-8.191923410007224 0 0)
(-9.111896470464568 0 0)
(-5.626508220932569 0 0)
(-1.610988957723921 0 0)
(3.773369099644774 0 0)
(8.34183889349492 0 0)
(13.38696264988875 0 0)
(17.17714563035826 0 0)
(17.82881461858251 0 0)
(14.94561605765091 0 0)
(6.642037101029673 0 0)
(-1.639130173626475 0 0)
(-2.421427697731323 0 0)
(0.8675671957948116 0 0)
(2.484655521795719 0 0)
(-0.124362603972618 0 0)
(-5.91293866652684 0 0)
(-8.643886246989803 0 0)
(-4.794333257779368 0 0)
(-2.11820653592752 0 0)
(1.256532930188794 0 0)
(1.182808243515175 0 0)
(-2.914051426694786 0 0)
(-6.871416531182131 0 0)
(-7.121138604313846 0 0)
(-2.92988147853147 0 0)
(4.010107653929011 0 0)
(12.22385134218304 0 0)
(18.56646798330206 0 0)
(22.37874612173183 0 0)
(19.78754878650115 0 0)
(11.29706570200589 0 0)
(3.371479786866917 0 0)
(-3.545331217245028 0 0)
(-8.11808174036994 0 0)
(-8.651650419693647 0 0)
(-5.622475198172068 0 0)
(0.7417193121388556 0 0)
(7.593051838243955 0 0)
(12.81943805192591 0 0)
(15.00401958174013 0 0)
(11.93097967993815 0 0)
(4.221479604848966 0 0)
(-2.02538349930539 0 0)
(-8.140648144452776 0 0)
(-11.84049160861579 0 0)
(-10.32032153958792 0 0)
(-3.774104540427408 0 0)
(4.337672922290719 0 0)
(13.67978369819449 0 0)
(19.40323904408883 0 0)
(17.99784992033146 0 0)
(9.884211910454734 0 0)
(-0.9435501906837677 0 0)
(-11.02746413092251 0 0)
(-12.13713574781679 0 0)
(-7.318107016552268 0 0)
(-3.180102389393124 0 0)
(0.4590015771050274 0 0)
(-1.165586757671764 0 0)
(-3.56789068498069 0 0)
(-4.51974311334097 0 0)
(-1.950488566366481 0 0)
(-3.786388381926263 0 0)
(-7.00739633577709 0 0)
(-8.537810621986516 0 0)
(-6.504255006928844 0 0)
(-1.187657162689194 0 0)
(6.321801545173061 0 0)
(15.13856354565073 0 0)
(22.64003205444741 0 0)
(26.46481882314943 0 0)
(22.09471997476365 0 0)
(8.173568792448878 0 0)
(-7.56962004423869 0 0)
(-13.2701305769411 0 0)
(-11.14451779205473 0 0)
(-4.200134081215587 0 0)
(3.173426732141315 0 0)
(7.042571593361662 0 0)
(4.64926925489161 0 0)
(-3.973128173697219 0 0)
(-9.572655765208252 0 0)
(-9.351694963581437 0 0)
(-5.045700118542005 0 0)
(0.3699366280852106 0 0)
(4.801909681752462 0 0)
(3.84784231419891 0 0)
(0.7270986963831729 0 0)
(-0.8313853718848755 0 0)
(0.6013189972383484 0 0)
(5.2453127775265 0 0)
(7.934082255700781 0 0)
(9.81614883215831 0 0)
(11.42202920428616 0 0)
(13.63293463689418 0 0)
(13.87377290130722 0 0)
(12.68782237688382 0 0)
(6.565070169623517 0 0)
(1.048663189660471 0 0)
(-6.172331574005146 0 0)
(-7.276766220730591 0 0)
(-6.229150108321437 0 0)
(-2.86499441265506 0 0)
(-1.807187821714995 0 0)
(-3.052265162824124 0 0)
(-5.388849167308027 0 0)
(-3.901615799036156 0 0)
(-7.52071489335031 0 0)
(-12.04979188153178 0 0)
(-14.16374673260653 0 0)
(-10.94054266688956 0 0)
(-3.813713935517407 0 0)
(3.015265637390391 0 0)
(9.697121854324202 0 0)
(13.20324338058867 0 0)
(12.54751942057419 0 0)
(8.166795992051295 0 0)
(3.799598705441455 0 0)
(2.648881666006877 0 0)
(5.87935643201497 0 0)
(9.629055177776385 0 0)
(11.26190532784198 0 0)
(10.08837524500374 0 0)
(8.161016050132828 0 0)
(3.680204121238607 0 0)
(-1.237152436191347 0 0)
(-2.946208130777401 0 0)
(-9.681654459242408 0 0)
(-13.65868029838172 0 0)
(-11.78808791553808 0 0)
(-4.437212409318761 0 0)
(0.3215655842708156 0 0)
(5.018949598899325 0 0)
(3.803115606526452 0 0)
(-2.621277544329187 0 0)
(-10.43445122783743 0 0)
(-12.0028126067012 0 0)
(-8.504122370507044 0 0)
(-0.5534317344797403 0 0)
(10.78684892697149 0 0)
(21.7021242794949 0 0)
(29.30040985963995 0 0)
(30.50407599281387 0 0)
(19.5794457559339 0 0)
(3.922636569639128 0 0)
(-8.538087999988674 0 0)
(-14.02241119502376 0 0)
(-12.1677289821507 0 0)
(-3.74513126025495 0 0)
(4.172074901303159 0 0)
(7.338134276920883 0 0)
(4.219646560386913 0 0)
(-2.670358136532293 0 0)
(-13.05514063349159 0 0)
(-21.94344927739095 0 0)
(-24.25935134836774 0 0)
(-20.81712531438361 0 0)
(-14.39624797563527 0 0)
(-7.473187130283677 0 0)
(-1.804932343386086 0 0)
(2.590881121741662 0 0)
(8.11367024775061 0 0)
(13.72435314601905 0 0)
(19.95628521028338 0 0)
(23.93922095364749 0 0)
(21.07779084171707 0 0)
(10.79697398256628 0 0)
(1.278890341322204 0 0)
(-2.914756013438329 0 0)
(-10.75817479689628 0 0)
(-14.93923543107457 0 0)
(-13.71042272611495 0 0)
(-9.291975127356581 0 0)
(-3.312358940909604 0 0)
(5.000552576373218 0 0)
(13.19618678793798 0 0)
(20.55009962036163 0 0)
(26.16857844856056 0 0)
(25.8109454224731 0 0)
(17.91845927250436 0 0)
(4.642229705428907 0 0)
(-7.260346053532288 0 0)
(-14.69359347549256 0 0)
(-13.79301049342601 0 0)
(-8.285319326654038 0 0)
(-1.05492323329202 0 0)
(6.734915904201865 0 0)
(14.6579545984587 0 0)
(21.03719661262638 0 0)
(25.07236620666392 0 0)
(25.16123881648774 0 0)
(16.29390223802014 0 0)
(2.169812544148991 0 0)
(-13.7649635851656 0 0)
(-18.79597110989992 0 0)
(-16.23153029579048 0 0)
(-12.73904690981577 0 0)
(-8.413213080600931 0 0)
(-5.186314619444604 0 0)
(-2.856265086766905 0 0)
(-0.4655549390901754 0 0)
(3.171470757329075 0 0)
(0.8143703907774041 0 0)
(-4.968835052191873 0 0)
(-9.551788034674988 0 0)
(-9.186722547928857 0 0)
(-4.093976544156863 0 0)
(3.156181573457821 0 0)
(10.8216177129882 0 0)
(17.01574580067343 0 0)
(18.97526520374393 0 0)
(15.32341704161178 0 0)
(8.529710697180739 0 0)
(4.23845505175311 0 0)
(3.544074864993033 0 0)
(2.514546102370678 0 0)
(1.634367492012184 0 0)
(0.4059017495107832 0 0)
(0.6404844204997506 0 0)
(0.3754594215109714 0 0)
(-1.107891768952856 0 0)
(-7.660645997253604 0 0)
(-14.39711563445297 0 0)
(-15.20481999686819 0 0)
(-9.503657697260801 0 0)
(-3.538636664814363 0 0)
(1.080327982832769 0 0)
(2.457548293460021 0 0)
(-1.765313163527641 0 0)
(-8.482725336645519 0 0)
(-10.48061106221819 0 0)
(-6.413222722924347 0 0)
(2.790262195895721 0 0)
(13.94445451836178 0 0)
(22.23823589654705 0 0)
(24.79567349414879 0 0)
(16.33446014111626 0 0)
(1.213401285802944 0 0)
(-11.68342063788348 0 0)
(-18.42974394176124 0 0)
(-17.34923082888742 0 0)
(-11.587025809689 0 0)
(-4.981786015306711 0 0)
(0.3082991225794388 0 0)
(2.640224619795173 0 0)
(2.274295091526233 0 0)
(1.791977866958327 0 0)
(2.177616600200389 0 0)
(6.394565340403613 0 0)
(5.174238443036717 0 0)
(-0.1464995583552851 0 0)
(-6.622618230899807 0 0)
(-8.184561341401229 0 0)
(-3.43612014621036 0 0)
(3.377284566998266 0 0)
(8.38372669265924 0 0)
(12.06404118463446 0 0)
(8.799586412565301 0 0)
(-1.233793639137862 0 0)
(-7.967768597749534 0 0)
(-6.938359578092956 0 0)
(0.8404912469463494 0 0)
(6.198891948715627 0 0)
(7.289016919847862 0 0)
(1.142932810119011 0 0)
(-5.497877849209777 0 0)
(-5.218313568548488 0 0)
(-5.244718746103997 0 0)
(-0.6827810181543713 0 0)
(7.028204762401342 0 0)
(15.9082966090529 0 0)
(25.22700110299188 0 0)
(32.35959212211667 0 0)
(32.71153541214596 0 0)
(20.8066537365805 0 0)
(1.837679731334491 0 0)
(-18.01968250858942 0 0)
(-24.65230593362968 0 0)
(-20.05713681873074 0 0)
(-10.84396424992774 0 0)
(0.05973986570804468 0 0)
(9.398169722801514 0 0)
(17.8128683368027 0 0)
(23.04405246812585 0 0)
(23.17580686027398 0 0)
(19.12547235213248 0 0)
(14.20399382129702 0 0)
(5.407026904897482 0 0)
(-5.485528426959828 0 0)
(-9.459603812573299 0 0)
(-15.81788476793461 0 0)
(-17.79256067579928 0 0)
(-19.42501781955805 0 0)
(-17.12395970469085 0 0)
(-10.1975492468534 0 0)
(-0.5454842757257562 0 0)
(9.719153870576568 0 0)
(18.5487707187526 0 0)
(24.2203506793573 0 0)
(23.75892107612848 0 0)
(17.56683144881999 0 0)
(9.9102442311423 0 0)
(4.151481456859204 0 0)
(-2.481626826287273 0 0)
(-16.51890445002948 0 0)
(-26.85414313143116 0 0)
(-27.2433217659818 0 0)
(-24.17844777211642 0 0)
(-16.72307625451285 0 0)
(-6.682987202343282 0 0)
(2.94690757590047 0 0)
(12.33283332710585 0 0)
(20.60086245492353 0 0)
(26.06474289471183 0 0)
(26.76542909432653 0 0)
(26.40777132263995 0 0)
(19.86448585518085 0 0)
(13.32627485151477 0 0)
(12.51551944885409 0 0)
(10.68764947582482 0 0)
(12.41423892766272 0 0)
(7.684531664149445 0 0)
(1.811623210813467 0 0)
(-0.586770462122317 0 0)
(1.410869278932522 0 0)
(3.985828865701517 0 0)
(10.29950094156561 0 0)
(18.05171520650728 0 0)
(21.69836313365592 0 0)
(22.64572727949784 0 0)
(14.3839894958066 0 0)
(0.2842191569219951 0 0)
(-15.13483981479017 0 0)
(-19.6248772620628 0 0)
(-15.83883092364612 0 0)
(-12.85018645914709 0 0)
(-10.49059631332733 0 0)
(-11.99317806622916 0 0)
(-13.00463820743716 0 0)
(-10.76283640293145 0 0)
(-3.749172918362049 0 0)
(6.002578374776471 0 0)
(15.29125721485987 0 0)
(19.64672415647928 0 0)
(17.71449007948445 0 0)
(8.463342523747603 0 0)
(0.3597520733582872 0 0)
(2.104660399651108 0 0)
(4.297499862502662 0 0)
(9.383489732615606 0 0)
(8.470566017724495 0 0)
(1.944394750413989 0 0)
(-3.122177277450167 0 0)
(-2.870197252318163 0 0)
(5.267266298242847 0 0)
(10.59640337551164 0 0)
(11.77297341323398 0 0)
(4.866274257657864 0 0)
(-2.403918067951279 0 0)
(-4.02733792361078 0 0)
(-4.084672164454945 0 0)
(-0.6250578368878519 0 0)
(7.052415676466095 0 0)
(16.37246272723731 0 0)
(26.03581216253225 0 0)
(32.02196299219734 0 0)
(27.48298718673701 0 0)
(10.79770541790847 0 0)
(-10.67768285730347 0 0)
(-25.12959910606769 0 0)
(-26.54450074811646 0 0)
(-18.47476323919711 0 0)
(-6.224203839153469 0 0)
(7.473328414831156 0 0)
(20.46756806530707 0 0)
(31.37118543527091 0 0)
(36.45030123880858 0 0)
(32.43177929288024 0 0)
(17.45147242305901 0 0)
(-2.000820027702044 0 0)
(-15.28489538040749 0 0)
(-20.35876722676801 0 0)
(-17.64871150067714 0 0)
(-9.845818546530753 0 0)
(-2.838182752268127 0 0)
(3.149976222536836 0 0)
(7.680651110254655 0 0)
(11.51599825104899 0 0)
(8.654195328840425 0 0)
(-0.4452423562400179 0 0)
(-8.239381621658552 0 0)
(-9.929300785913719 0 0)
(-5.79030657578406 0 0)
(1.204984845517151 0 0)
(9.786676629370794 0 0)
(19.27591756821047 0 0)
(26.07134899813336 0 0)
(26.94317353175425 0 0)
(21.51331713058671 0 0)
(12.67250243521707 0 0)
(9.853895636371927 0 0)
(0.3858772859814503 0 0)
(-8.864246643320584 0 0)
(-11.03493174436059 0 0)
(-14.72177313025139 0 0)
(-14.8255469433423 0 0)
(-14.78086641710732 0 0)
(-11.6580954174603 0 0)
(-5.018634712301545 0 0)
(3.252197792342502 0 0)
(12.89508748382872 0 0)
(23.10256185893147 0 0)
(32.89239262316745 0 0)
(37.13109416010477 0 0)
(30.73954504627094 0 0)
(14.80806430685665 0 0)
(-6.083536923309549 0 0)
(-20.49367455971184 0 0)
(-23.1599631195674 0 0)
(-17.75209716681263 0 0)
(-9.667307989016612 0 0)
(0.6060078693938863 0 0)
(11.79275883251993 0 0)
(22.27221485274475 0 0)
(32.35806207962881 0 0)
(40.05135758836514 0 0)
(38.69519084931914 0 0)
(22.87276857251397 0 0)
(-2.059067700046872 0 0)
(-20.21882741008596 0 0)
(-25.59161757462799 0 0)
(-20.65304727040404 0 0)
(-11.83309573035883 0 0)
(-3.069459094857836 0 0)
(5.09244744919113 0 0)
(11.58006473607087 0 0)
(16.57878645155828 0 0)
(20.43350797093506 0 0)
(23.07648216238369 0 0)
(25.48097292881437 0 0)
(26.34428181898151 0 0)
(28.5942163161223 0 0)
(31.49152806926055 0 0)
(30.86269056625057 0 0)
(23.12202048812184 0 0)
(5.203215943081061 0 0)
(-11.94450018729146 0 0)
(-18.94865986075303 0 0)
(-16.91110218404194 0 0)
(-9.325684066476111 0 0)
(-0.6110797411894158 0 0)
(7.820760683394238 0 0)
(11.93640236882625 0 0)
(12.18332983083338 0 0)
(12.7994121364071 0 0)
(8.794193874097072 0 0)
(6.219497780143824 0 0)
(8.107172515675387 0 0)
(14.43705354798991 0 0)
(19.06793507492456 0 0)
(25.02279675839012 0 0)
(21.20429965288526 0 0)
(6.491351741961524 0 0)
(-4.994558691501477 0 0)
(-14.07408379057888 0 0)
(-14.34377006540339 0 0)
(-8.086750373145348 0 0)
(2.915964533519507 0 0)
(15.50232316116066 0 0)
(26.35296420717464 0 0)
(32.73981000965666 0 0)
(32.18842213391708 0 0)
(21.83616683681758 0 0)
(4.814714547029833 0 0)
(-10.52955951152842 0 0)
(-23.6290269958692 0 0)
(-24.18091228713311 0 0)
(-17.84902711564376 0 0)
(-8.307439791380354 0 0)
(2.04687156080164 0 0)
(11.02602957030716 0 0)
(17.33863950594416 0 0)
(20.81512719280495 0 0)
(18.76853885198124 0 0)
(9.3710647428345 0 0)
(0.2796925579450746 0 0)
(-2.611066927114999 0 0)
(1.626393388544684 0 0)
(7.762041535324389 0 0)
(14.39766482902673 0 0)
(19.54298166630608 0 0)
(19.94442353962857 0 0)
(16.170107814017 0 0)
(12.19981627648049 0 0)
(11.0358642174014 0 0)
(13.75453227081251 0 0)
(12.47352474138058 0 0)
(4.848722387315383 0 0)
(-2.972206462313184 0 0)
(-8.329123685612533 0 0)
(-9.778914313125988 0 0)
(-8.075456481190121 0 0)
(-3.326509333805869 0 0)
(3.347199510728593 0 0)
(11.79050478816975 0 0)
(21.09139983169633 0 0)
(30.67514746274777 0 0)
(36.99014984643998 0 0)
(34.40574358375883 0 0)
(20.04268588986043 0 0)
(3.60901805884042 0 0)
(-11.67629369972533 0 0)
(-14.57260142770834 0 0)
(-7.759202895883444 0 0)
(4.507992425811151 0 0)
(16.15279318052103 0 0)
(26.77214860176026 0 0)
(33.45037079928451 0 0)
(34.71232437045574 0 0)
(28.67737867373106 0 0)
(16.86685159554902 0 0)
(3.615808762243458 0 0)
(-6.267699527196484 0 0)
(-6.450031851772875 0 0)
(-2.949155223815913 0 0)
(1.256706858582986 0 0)
(0.247159376477213 0 0)
(-2.974663864293846 0 0)
(-6.012208973475469 0 0)
(-5.51625909288593 0 0)
(-1.3779107426555 0 0)
(4.41063259935019 0 0)
(13.59003952358754 0 0)
(23.15399264980328 0 0)
(31.17079461210525 0 0)
(36.88057737128401 0 0)
(35.63480344110144 0 0)
(23.80590148551849 0 0)
(4.118446494609971 0 0)
(-12.74129476612054 0 0)
(-18.88630481286955 0 0)
(-14.5632256415633 0 0)
(-3.818230833730398 0 0)
(9.054626666344548 0 0)
(19.60297719631999 0 0)
(24.15526613598902 0 0)
(21.86367590330845 0 0)
(14.90313021222588 0 0)
(3.713907220663726 0 0)
(-1.076625363982848 0 0)
(3.60864835718639 0 0)
(8.757219079368401 0 0)
(16.5182517249206 0 0)
(19.32169635834322 0 0)
(15.96753736432888 0 0)
(7.162924335223488 0 0)
(1.350333381431876 0 0)
(-4.210238544521493 0 0)
(-5.104216451248794 0 0)
(-0.9263136086777827 0 0)
(7.060221567200601 0 0)
(17.11520688490977 0 0)
(25.75040546342489 0 0)
(29.07062977136247 0 0)
(24.43442463354214 0 0)
(12.27180223054168 0 0)
(-3.188886505553141 0 0)
(-18.14697513436472 0 0)
(-20.30865262571873 0 0)
(-14.22764249482984 0 0)
(-3.507832214315307 0 0)
(9.266071587824353 0 0)
(19.76110586316465 0 0)
(24.66282627057521 0 0)
(23.12748200805633 0 0)
(12.94797010571888 0 0)
(4.691702397366147 0 0)
(6.308893365262003 0 0)
(7.286183556800304 0 0)
(11.72271170269786 0 0)
(12.83281694991215 0 0)
(8.456387884378158 0 0)
(2.951071346056965 0 0)
(1.818323679180784 0 0)
(6.219689166576066 0 0)
(8.246279564802133 0 0)
(5.729268903648563 0 0)
(-0.06622156919038014 0 0)
(-2.281370717140134 0 0)
(0.6678374972570057 0 0)
(6.618734818332775 0 0)
(14.60454938729164 0 0)
(22.76616752890627 0 0)
(27.94533500894575 0 0)
(28.47375047684818 0 0)
(22.06040339551305 0 0)
(8.108479030603483 0 0)
(2.192729057007156 0 0)
(-6.988117359875843 0 0)
(-9.119907320589652 0 0)
(-3.256943107487103 0 0)
(6.486826863060156 0 0)
(16.03381589747833 0 0)
(24.66835403077807 0 0)
(30.09946266159246 0 0)
(29.82864434813503 0 0)
(24.03563733291279 0 0)
(12.54595249575785 0 0)
(2.36884077750817 0 0)
(-8.143288987219183 0 0)
(-9.625272078073383 0 0)
(-3.585239518438787 0 0)
(5.29618370328837 0 0)
(11.72218572399296 0 0)
(13.66061484799223 0 0)
(12.01801550721283 0 0)
(10.33732715996564 0 0)
(13.55210570187479 0 0)
(16.9397162586294 0 0)
(24.19781169332938 0 0)
(23.57652275824145 0 0)
(14.49468888413874 0 0)
(1.973486552954006 0 0)
(-2.931660625452865 0 0)
(-7.865996866795413 0 0)
(-7.224396635773374 0 0)
(-1.469793326033134 0 0)
(7.667280434630582 0 0)
(17.76065972744833 0 0)
(27.9730962967354 0 0)
(35.22537761853552 0 0)
(35.35240461880768 0 0)
(22.91069949869817 0 0)
(0.9061109664038398 0 0)
(-16.85937506416306 0 0)
(-22.01004903024181 0 0)
(-16.47417829231499 0 0)
(-5.514043853904986 0 0)
(7.395895749722609 0 0)
(20.43449203436171 0 0)
(31.82958359537309 0 0)
(39.3600640360547 0 0)
(38.7598061357716 0 0)
(25.86016039440455 0 0)
(4.567333022150631 0 0)
(-12.50523501349326 0 0)
(-18.08455413488922 0 0)
(-12.74152562738733 0 0)
(-1.859502784891928 0 0)
(10.40532117394106 0 0)
(21.72553976618566 0 0)
(30.64123016104066 0 0)
(36.50122520511721 0 0)
(32.17109510539508 0 0)
(16.25538116341114 0 0)
(2.626738037696712 0 0)
(-8.508464297101009 0 0)
(-9.297471269088472 0 0)
(-3.568424699744724 0 0)
(7.072512960031569 0 0)
(17.38696281639886 0 0)
(24.29423274750733 0 0)
(27.17029674416346 0 0)
(23.71242944666455 0 0)
(14.04941861347748 0 0)
(6.586404644268463 0 0)
(6.676124681251401 0 0)
(8.521275399120686 0 0)
(11.34579846738396 0 0)
(13.89003369106706 0 0)
(13.81693069116517 0 0)
(13.16793490867708 0 0)
(7.524253382210573 0 0)
(3.751914208871312 0 0)
(-1.530706125945926 0 0)
(-2.032872063680226 0 0)
(2.392542307122716 0 0)
(12.04511151356956 0 0)
(20.92117242624647 0 0)
(27.63649561932151 0 0)
(27.72600219662454 0 0)
(20.31811366791741 0 0)
(10.33923005636954 0 0)
(1.497941541017541 0 0)
(-4.03503698863241 0 0)
(-2.746487965639168 0 0)
(4.04445848214252 0 0)
(14.89327515781448 0 0)
(24.54525980285705 0 0)
(30.42254428169111 0 0)
(29.30777439174794 0 0)
(21.30751290053601 0 0)
(7.7257667124412 0 0)
(-2.100204782318436 0 0)
(-7.616988226575374 0 0)
(-5.667225389915274 0 0)
(1.209870156503887 0 0)
(10.44470191211289 0 0)
(18.2570038498816 0 0)
(21.54921006498109 0 0)
(20.69536377561838 0 0)
(17.45601245577584 0 0)
(14.2865782016226 0 0)
(11.00150867154142 0 0)
(6.383400641620759 0 0)
(2.33168739288485 0 0)
(1.357456161423399 0 0)
(4.176915614353975 0 0)
(3.827877234593565 0 0)
(2.917688163444798 0 0)
(3.350253464864982 0 0)
(6.148063376548469 0 0)
(12.18977497949486 0 0)
(17.28395339372157 0 0)
(24.93665164638769 0 0)
(26.0626863444794 0 0)
(20.6837121045013 0 0)
(12.12911676400481 0 0)
(8.757634622226071 0 0)
(2.142922540887496 0 0)
(-1.677121068257069 0 0)
(-0.5612678398462739 0 0)
(5.701145753798873 0 0)
(14.09771628935134 0 0)
(20.64315156785128 0 0)
(25.43126188059082 0 0)
(23.98639352852224 0 0)
(18.03702718035643 0 0)
(12.16986486435268 0 0)
(12.38628900360479 0 0)
(7.933429065267877 0 0)
(5.700592851258547 0 0)
(6.543589885424624 0 0)
(11.45859378486051 0 0)
(13.96618815183822 0 0)
(19.12385617804335 0 0)
(19.33557800783031 0 0)
(16.45152602177592 0 0)
(13.29604767896123 0 0)
(11.8816855353867 0 0)
(11.41527604584797 0 0)
(7.495665109424243 0 0)
(2.169263204159262 0 0)
(-0.2373719283715066 0 0)
(2.191033879941413 0 0)
(7.76281109394786 0 0)
(15.10858186523897 0 0)
(22.15319226943929 0 0)
(24.38198476140716 0 0)
(18.92230987058683 0 0)
(7.077725685818019 0 0)
(-5.122674144057155 0 0)
(-11.40561742228739 0 0)
(-9.152227882301631 0 0)
(-1.396067455780409 0 0)
(8.910955005677685 0 0)
(18.75579495456126 0 0)
(25.06539298826917 0 0)
(25.56799740847657 0 0)
(21.89322512162662 0 0)
(14.37049845611898 0 0)
(6.585083143740521 0 0)
(-4.309093806656982 0 0)
(-7.594001810948858 0 0)
(-3.895700751773536 0 0)
(5.050521998803824 0 0)
(15.34521253080209 0 0)
(23.35640930680432 0 0)
(26.97424069530126 0 0)
(24.46426747951956 0 0)
(20.18493102458388 0 0)
(10.00783239128044 0 0)
(2.843196372768395 0 0)
(-4.984855988750598 0 0)
(-6.13223020852888 0 0)
(-1.466953133441222 0 0)
(8.056131524645538 0 0)
(19.62574996643776 0 0)
(30.35803221485629 0 0)
(36.03622458946072 0 0)
(32.81007948435792 0 0)
(22.57047308684023 0 0)
(6.281403201793307 0 0)
(-5.831704883113456 0 0)
(-9.929818885237763 0 0)
(-6.747461050190567 0 0)
(1.674072584652368 0 0)
(12.02154285354877 0 0)
(23.36458975656213 0 0)
(31.73271806667165 0 0)
(35.51559049794125 0 0)
(28.04316893707389 0 0)
(10.13696428435278 0 0)
(-5.07971453113149 0 0)
(-13.08482722550335 0 0)
(-10.05274142221592 0 0)
(-1.704818422061817 0 0)
(8.16167461444325 0 0)
(17.89991980039971 0 0)
(25.63126528951674 0 0)
(30.32870005169616 0 0)
(30.4062884166422 0 0)
(26.19938359511932 0 0)
(19.23830120777485 0 0)
(5.980515055326582 0 0)
(-0.6318942906350992 0 0)
(0.6125663952622332 0 0)
(6.373141023047372 0 0)
(12.52629044127199 0 0)
(17.12466698352226 0 0)
(19.60671060191074 0 0)
(20.8641857554035 0 0)
(22.79468739573938 0 0)
(25.66128330530763 0 0)
(29.42439152203386 0 0)
(27.75759205132029 0 0)
(19.09185122031984 0 0)
(11.75621686761802 0 0)
(10.23708968987134 0 0)
(8.747559194707955 0 0)
(7.030397576262392 0 0)
(8.84875358793812 0 0)
(14.62592584657259 0 0)
(22.64577867923353 0 0)
(26.66103434933889 0 0)
(32.34536706556798 0 0)
(30.92164119518503 0 0)
(22.82814489508414 0 0)
(14.80177484624652 0 0)
(13.37884346204454 0 0)
(10.60223860615743 0 0)
(10.23390404670671 0 0)
(13.0135110620285 0 0)
(17.38762253951945 0 0)
(21.02515307345042 0 0)
(24.27471671560299 0 0)
(20.96332835982398 0 0)
(11.48775321007468 0 0)
(5.335368560834013 0 0)
(5.630654572740995 0 0)
(7.19926687563801 0 0)
(9.256153743608028 0 0)
(12.91458014969903 0 0)
(17.71473732131761 0 0)
(22.66082586657271 0 0)
(24.6759573670813 0 0)
(28.27853354774305 0 0)
(25.25481754938142 0 0)
(14.49879974162281 0 0)
(3.73736150008813 0 0)
(-0.2622614969973508 0 0)
(-2.535390586972219 0 0)
(-1.086389457432027 0 0)
(3.6333423534242 0 0)
(10.77707295466558 0 0)
(18.11262785757193 0 0)
(24.71526604125089 0 0)
(30.75717801293825 0 0)
(33.81424272238 0 0)
(34.60036060710623 0 0)
(33.49126075502492 0 0)
(31.69528158449787 0 0)
(26.45386553362206 0 0)
(19.73535675374985 0 0)
(12.30211131686623 0 0)
(10.83120670312158 0 0)
(14.04067439680468 0 0)
(20.26248183043331 0 0)
(26.49480502972668 0 0)
(28.51498597808383 0 0)
(23.51280391293633 0 0)
(14.37536360056391 0 0)
(4.691190552734293 0 0)
(-0.2532168632923796 0 0)
(0.45628435225257 0 0)
(6.607620127142028 0 0)
(14.94258935432085 0 0)
(22.0392341634875 0 0)
(26.904338564377 0 0)
(26.1145358305386 0 0)
(18.75550511267818 0 0)
(8.023343766857607 0 0)
(1.195996181613067 0 0)
(-2.470094366732382 0 0)
(-1.196475511763974 0 0)
(3.516210513193883 0 0)
(10.47883256609561 0 0)
(19.16454422578722 0 0)
(28.03505734116675 0 0)
(35.48049298269703 0 0)
(38.51342236565579 0 0)
(36.62125504135678 0 0)
(29.82815680754179 0 0)
(15.62063957609165 0 0)
(2.643072361156569 0 0)
(0.4474930108319744 0 0)
(2.573095474259082 0 0)
(6.416553088358897 0 0)
(12.48899374154372 0 0)
(20.47779747059582 0 0)
(29.67351671859279 0 0)
(36.45064496460085 0 0)
(37.48428302178291 0 0)
(35.54551256420982 0 0)
(31.26692654368309 0 0)
(20.12073479338011 0 0)
(9.599190052441555 0 0)
(7.902872216624786 0 0)
(9.804603143036143 0 0)
(12.51737847464183 0 0)
(17.28308002578069 0 0)
(25.14684995545587 0 0)
(31.70269089657154 0 0)
(33.92367730220712 0 0)
(34.29744888956848 0 0)
(33.41975934359614 0 0)
(26.65772687295827 0 0)
(17.40177342359271 0 0)
(14.69013045050164 0 0)
(13.43914931784673 0 0)
(14.79714587929877 0 0)
(19.37357824739557 0 0)
(24.88634995122803 0 0)
(26.21721215403779 0 0)
(26.53386853328301 0 0)
(23.98757683659203 0 0)
(18.14671900013535 0 0)
(14.75495234316459 0 0)
(14.65330253319459 0 0)
(15.90308483629509 0 0)
(18.64724525007831 0 0)
(21.01364942708741 0 0)
)
;

boundaryField
{
    inlet
    {
        type            zeroGradient;
    }
    outlet
    {
        type            pressureInletOutletVelocity;
        value           uniform (21.01364942708741 0 0);
    }
    frontAndBack
    {
        type            empty;
    }
}


// ************************************************************************* //
