/*--------------------------------*- C++ -*----------------------------------*\
| =========                 |                                                 |
| \\      /  F ield         | OpenFOAM: The Open Source CFD Toolbox           |
|  \\    /   O peration     | Version:  v2012                                 |
|   \\  /    A nd           | Website:  www.openfoam.com                      |
|    \\/     M anipulation  |                                                 |
\*---------------------------------------------------------------------------*/
FoamFile
{
    version     2.0;
    format      ascii;
    class       volVectorField;
    location    "0.019";
    object      UMean;
}
// * * * * * * * * * * * * * * * * * * * * * * * * * * * * * * * * * * * * * //

dimensions      [0 1 -1 0 0 0 0];


internalField   nonuniform List<vector> 
1000
(
(0.09620440111059167 0 0)
(0.1068846461793933 0 0)
(0.08060548431477221 0 0)
(0.08716522930939956 0 0)
(0.08039669423531477 0 0)
(0.08531739191589754 0 0)
(0.08130471398885916 0 0)
(0.08445910687994082 0 0)
(0.08635588346346185 0 0)
(0.08691315435796736 0 0)
(0.08335920118478633 0 0)
(0.07631456456524516 0 0)
(0.07192818231940437 0 0)
(0.0618243637095236 0 0)
(0.05931625231426896 0 0)
(0.04714331987957052 0 0)
(0.04517586320514187 0 0)
(0.03708169683699884 0 0)
(0.04173177789858261 0 0)
(0.04684655289085499 0 0)
(0.04734525228448853 0 0)
(0.05615528038397207 0 0)
(0.06302129342208249 0 0)
(0.07885016503768912 0 0)
(0.09178319421603083 0 0)
(0.09604899856986671 0 0)
(0.1058591619695856 0 0)
(0.1076493190158112 0 0)
(0.1098909632278252 0 0)
(0.1011347321330342 0 0)
(0.08674284409013654 0 0)
(0.08052415917560804 0 0)
(0.07751230294888604 0 0)
(0.0875865597849758 0 0)
(0.09702825306286628 0 0)
(0.1098874402128579 0 0)
(0.1137255053751497 0 0)
(0.1223702978065645 0 0)
(0.1250556941539561 0 0)
(0.1235172720428487 0 0)
(0.1183222137217768 0 0)
(0.113138413411036 0 0)
(0.1101367452161287 0 0)
(0.1092917856286352 0 0)
(0.10020252254551 0 0)
(0.09713392244628939 0 0)
(0.09535999608838791 0 0)
(0.09600754038354606 0 0)
(0.09611228925958697 0 0)
(0.08898272492536273 0 0)
(0.09261562940364866 0 0)
(0.09898624286269427 0 0)
(0.1041936202152334 0 0)
(0.1056177835834702 0 0)
(0.1074447176686131 0 0)
(0.1057527130311282 0 0)
(0.1079655742724617 0 0)
(0.1018399537395044 0 0)
(0.09384391767042034 0 0)
(0.08475525086366302 0 0)
(0.08081965203931561 0 0)
(0.08101621646866189 0 0)
(0.08532162488556197 0 0)
(0.08622116339881203 0 0)
(0.09205268465664285 0 0)
(0.1067119144066672 0 0)
(0.1149733374769939 0 0)
(0.1170213604855742 0 0)
(0.110612482504335 0 0)
(0.1084442615615641 0 0)
(0.1084676669166899 0 0)
(0.1039691571886632 0 0)
(0.09816734487735608 0 0)
(0.09285063024467063 0 0)
(0.09086669309953366 0 0)
(0.09122412128186008 0 0)
(0.08482389846148485 0 0)
(0.08312888595270503 0 0)
(0.08475390553014006 0 0)
(0.1001095989710227 0 0)
(0.1133045708096894 0 0)
(0.1231493013810426 0 0)
(0.1305870062440231 0 0)
(0.1277277498379619 0 0)
(0.1275488351354681 0 0)
(0.123558211860174 0 0)
(0.1126900878681039 0 0)
(0.101165169669858 0 0)
(0.09014071762037708 0 0)
(0.086826988703471 0 0)
(0.0945426042711599 0 0)
(0.07943011966738665 0 0)
(0.08269495154636917 0 0)
(0.08967156478854788 0 0)
(0.09063859066711555 0 0)
(0.09452051147911561 0 0)
(0.08922524782533577 0 0)
(0.08980987141314013 0 0)
(0.1012062257067373 0 0)
(0.1142688180571646 0 0)
(0.1253918326115794 0 0)
(0.1270136635764047 0 0)
(0.1354115094115227 0 0)
(0.1338309417698968 0 0)
(0.1356692607977834 0 0)
(0.1210194186915104 0 0)
(0.1165372950660641 0 0)
(0.1144269734607852 0 0)
(0.114362102524642 0 0)
(0.1224690951679935 0 0)
(0.1248588672015969 0 0)
(0.1266390727886394 0 0)
(0.1327157116024406 0 0)
(0.1375995787868875 0 0)
(0.1280009076292435 0 0)
(0.1258353858542076 0 0)
(0.121178618659564 0 0)
(0.1228738767410903 0 0)
(0.123945596400969 0 0)
(0.1197936693748366 0 0)
(0.1205144379304011 0 0)
(0.1177966261546431 0 0)
(0.1205098953871274 0 0)
(0.1141904556442366 0 0)
(0.1016570522463843 0 0)
(0.09894188383435523 0 0)
(0.09775577958163868 0 0)
(0.1121090346515531 0 0)
(0.1148858712767679 0 0)
(0.1253674645734933 0 0)
(0.1312784993421256 0 0)
(0.1426313194710154 0 0)
(0.1424169966028231 0 0)
(0.1373588975815839 0 0)
(0.1276472918843499 0 0)
(0.11785182282941 0 0)
(0.1192179003661635 0 0)
(0.1173163250887361 0 0)
(0.1044806060371397 0 0)
(0.1022516986983661 0 0)
(0.103392724954545 0 0)
(0.1096400380088751 0 0)
(0.1171503988303643 0 0)
(0.1131442281643717 0 0)
(0.1208264535192664 0 0)
(0.1340447108511662 0 0)
(0.1423485822373429 0 0)
(0.1370747217909541 0 0)
(0.140825416443429 0 0)
(0.1330868900655325 0 0)
(0.1276176960408196 0 0)
(0.1285251340391008 0 0)
(0.1038625867549497 0 0)
(0.09989521142925391 0 0)
(0.1011222011062771 0 0)
(0.108332391320296 0 0)
(0.1078514900572943 0 0)
(0.1130357419861256 0 0)
(0.1163794295481891 0 0)
(0.1311700887748369 0 0)
(0.1417742170263547 0 0)
(0.1342048339397684 0 0)
(0.1253100493900959 0 0)
(0.1316702544089476 0 0)
(0.1309721413264593 0 0)
(0.1319279307685275 0 0)
(0.1281079009903704 0 0)
(0.1249320274610163 0 0)
(0.1201734137599633 0 0)
(0.1223048799409616 0 0)
(0.1155091733645169 0 0)
(0.1145069042999683 0 0)
(0.1144311166962984 0 0)
(0.1250737988412805 0 0)
(0.1411618731872671 0 0)
(0.1404286183806296 0 0)
(0.1414825986012052 0 0)
(0.1385952068656763 0 0)
(0.1430171813983785 0 0)
(0.1341163310840074 0 0)
(0.1212679060469048 0 0)
(0.1074915995792602 0 0)
(0.1023383077344072 0 0)
(0.1054459466671667 0 0)
(0.09942596663037243 0 0)
(0.09615892052510465 0 0)
(0.1012320796301702 0 0)
(0.1136941896178963 0 0)
(0.1240259621370596 0 0)
(0.1224142530093719 0 0)
(0.1197755002601934 0 0)
(0.1211572095617161 0 0)
(0.1283699471980489 0 0)
(0.1356110469893578 0 0)
(0.1451835206022786 0 0)
(0.1449582160469109 0 0)
(0.1459542922698707 0 0)
(0.1452027735049242 0 0)
(0.1436552668663095 0 0)
(0.1264795893014224 0 0)
(0.1135380516319945 0 0)
(0.1176955585304693 0 0)
(0.1162265673185209 0 0)
(0.1137836786586383 0 0)
(0.1101735374735165 0 0)
(0.1166955830942682 0 0)
(0.1267150175385577 0 0)
(0.1337199057391793 0 0)
(0.1320633212670571 0 0)
(0.1331040828315516 0 0)
(0.1471915638324181 0 0)
(0.1403041932542418 0 0)
(0.1379310974515526 0 0)
(0.1288429961957746 0 0)
(0.1184911532789445 0 0)
(0.1209577281872043 0 0)
(0.1229303444801362 0 0)
(0.1239643217737999 0 0)
(0.1187938114433812 0 0)
(0.1247259888758255 0 0)
(0.1397147806938178 0 0)
(0.1483607532390018 0 0)
(0.1473716132644592 0 0)
(0.1411186162493985 0 0)
(0.1438519119240013 0 0)
(0.1432144540000352 0 0)
(0.1399830452690679 0 0)
(0.1252457157231786 0 0)
(0.1200907167923555 0 0)
(0.1180201960264248 0 0)
(0.1122082453549442 0 0)
(0.09955955713373699 0 0)
(0.09861650647151086 0 0)
(0.09533470803916437 0 0)
(0.1034605194429269 0 0)
(0.1153961491393936 0 0)
(0.1211641682419188 0 0)
(0.1286367042959445 0 0)
(0.1350522953572023 0 0)
(0.1436152569089325 0 0)
(0.138646670052862 0 0)
(0.1320847965434034 0 0)
(0.12998509324048 0 0)
(0.1350848833632579 0 0)
(0.1439949372740607 0 0)
(0.1410535302746045 0 0)
(0.1401820870164164 0 0)
(0.1353451569517841 0 0)
(0.1488920577180001 0 0)
(0.1459702939379787 0 0)
(0.1406775405797234 0 0)
(0.1441577763416807 0 0)
(0.1479043456935047 0 0)
(0.1582474298857329 0 0)
(0.1571869387936905 0 0)
(0.1559594818632471 0 0)
(0.1539882156110467 0 0)
(0.1532276474404256 0 0)
(0.1579125873223496 0 0)
(0.1536730458659935 0 0)
(0.1509497684743678 0 0)
(0.1459218921913041 0 0)
(0.1536981093791165 0 0)
(0.1429141176546599 0 0)
(0.1410227973423537 0 0)
(0.1319487824471728 0 0)
(0.1391139041333211 0 0)
(0.1453604810136334 0 0)
(0.1582537982022738 0 0)
(0.1573694440915514 0 0)
(0.1624875187355358 0 0)
(0.1768898910231348 0 0)
(0.1772663792141378 0 0)
(0.1686373326320362 0 0)
(0.1521345901361557 0 0)
(0.1486438399100335 0 0)
(0.1433765377871203 0 0)
(0.1330892522934147 0 0)
(0.1303927499448492 0 0)
(0.1226098224997886 0 0)
(0.128131149463811 0 0)
(0.1372316395695706 0 0)
(0.1432469952476143 0 0)
(0.1475204974118898 0 0)
(0.1459948804339064 0 0)
(0.1630703908403194 0 0)
(0.1598851787910809 0 0)
(0.1743659831714533 0 0)
(0.1724996619569185 0 0)
(0.1763909220946029 0 0)
(0.1745526151959103 0 0)
(0.178385733339405 0 0)
(0.1602332706638449 0 0)
(0.1450418093739478 0 0)
(0.1415186763735031 0 0)
(0.1376803270780496 0 0)
(0.1277843655531387 0 0)
(0.1212172863405175 0 0)
(0.1213577214368903 0 0)
(0.1269567005690726 0 0)
(0.1353846817410865 0 0)
(0.144431184103398 0 0)
(0.143577035162279 0 0)
(0.1507962102270495 0 0)
(0.1505706125260967 0 0)
(0.1506393981548117 0 0)
(0.1441140970266929 0 0)
(0.1323100312034827 0 0)
(0.1341758161618868 0 0)
(0.137436706448945 0 0)
(0.1328655470051507 0 0)
(0.1256389554177863 0 0)
(0.1264896260510538 0 0)
(0.1278396754332577 0 0)
(0.1397504046358582 0 0)
(0.148895857031365 0 0)
(0.1527296538648151 0 0)
(0.1649744232505664 0 0)
(0.1781479788094899 0 0)
(0.1775884428231878 0 0)
(0.1737296063082516 0 0)
(0.160770419454931 0 0)
(0.151902943851827 0 0)
(0.1455928615459398 0 0)
(0.1436746409021886 0 0)
(0.1257746906364945 0 0)
(0.127368918389843 0 0)
(0.1356482117683053 0 0)
(0.1516124659423703 0 0)
(0.1602004226037538 0 0)
(0.1704498534165427 0 0)
(0.178171522594279 0 0)
(0.1858708858034486 0 0)
(0.187656327765413 0 0)
(0.1815929293910477 0 0)
(0.1714671678530313 0 0)
(0.16679824990248 0 0)
(0.1679074182839077 0 0)
(0.1667868039320683 0 0)
(0.1617448668039558 0 0)
(0.1637611273478492 0 0)
(0.1712364678123732 0 0)
(0.1745189337253171 0 0)
(0.1799764430046049 0 0)
(0.1803878674233321 0 0)
(0.1715393278350145 0 0)
(0.1789098520745631 0 0)
(0.1808650559986993 0 0)
(0.1727000581532249 0 0)
(0.1683923986842014 0 0)
(0.1688673512000903 0 0)
(0.1740207771592454 0 0)
(0.1700039832588859 0 0)
(0.1724236170131172 0 0)
(0.1821588865468567 0 0)
(0.19141912129187 0 0)
(0.1943575595133223 0 0)
(0.1996161835133025 0 0)
(0.1839497722080391 0 0)
(0.1824549939753307 0 0)
(0.1853206506237884 0 0)
(0.1943485775756416 0 0)
(0.1957395877990952 0 0)
(0.1999338393789828 0 0)
(0.2065659550619426 0 0)
(0.2196704931754284 0 0)
(0.2259078645993845 0 0)
(0.2255589726034554 0 0)
(0.2292282796769986 0 0)
(0.2217727070568356 0 0)
(0.2129309760757016 0 0)
(0.2035213140445952 0 0)
(0.1952152986992053 0 0)
(0.1966725088127849 0 0)
(0.2042928214272064 0 0)
(0.2101687963526943 0 0)
(0.2109482604777294 0 0)
(0.2116000820540898 0 0)
(0.2116902695751865 0 0)
(0.2125607538992064 0 0)
(0.2283198132449913 0 0)
(0.2141104675421646 0 0)
(0.2253263819118956 0 0)
(0.2282981184695281 0 0)
(0.238825556155317 0 0)
(0.2322035725561392 0 0)
(0.2279420690856602 0 0)
(0.2193945538862958 0 0)
(0.2193442871324014 0 0)
(0.2155137723549619 0 0)
(0.2187232143637902 0 0)
(0.2288010491763794 0 0)
(0.2341210875751701 0 0)
(0.245575916121597 0 0)
(0.2490019736287558 0 0)
(0.2509448205507225 0 0)
(0.2467153810966649 0 0)
(0.2503590147055703 0 0)
(0.260605941237842 0 0)
(0.2542202975839326 0 0)
(0.2594452775625785 0 0)
(0.2478850024169212 0 0)
(0.2440253775738837 0 0)
(0.24714540110894 0 0)
(0.2355416287005848 0 0)
(0.2387067327819687 0 0)
(0.2361518495849018 0 0)
(0.2537033920129946 0 0)
(0.2549561635748977 0 0)
(0.2625174573258566 0 0)
(0.2762919204437244 0 0)
(0.2826065669366444 0 0)
(0.2907171332904164 0 0)
(0.2912552123912059 0 0)
(0.2901276772877187 0 0)
(0.2707392916253015 0 0)
(0.2673063403227092 0 0)
(0.2593166988243644 0 0)
(0.2527619109891154 0 0)
(0.2475861870706222 0 0)
(0.2578424561463118 0 0)
(0.2668121179246656 0 0)
(0.286820988059261 0 0)
(0.2935669186198416 0 0)
(0.3047998668041111 0 0)
(0.3025319254041013 0 0)
(0.3052192649782557 0 0)
(0.3003964185085016 0 0)
(0.2939795630691233 0 0)
(0.2832494955104869 0 0)
(0.2914810504688393 0 0)
(0.2886290909242676 0 0)
(0.2917392275994825 0 0)
(0.2979108581457771 0 0)
(0.2985882759740439 0 0)
(0.3000595263589874 0 0)
(0.309526570981951 0 0)
(0.30720021214893 0 0)
(0.3017411338843543 0 0)
(0.308937400843241 0 0)
(0.3101316734048498 0 0)
(0.3152744221951093 0 0)
(0.3113073165358277 0 0)
(0.3157156419376693 0 0)
(0.3177983960225557 0 0)
(0.3205170129699719 0 0)
(0.3151729122679173 0 0)
(0.3084039858322036 0 0)
(0.300056294301622 0 0)
(0.2990063513881037 0 0)
(0.3016961400917249 0 0)
(0.3072939418060506 0 0)
(0.3048148539147054 0 0)
(0.324475308625002 0 0)
(0.3330385091700355 0 0)
(0.3376913795106843 0 0)
(0.3514035876947719 0 0)
(0.3582181416235101 0 0)
(0.3549421841835862 0 0)
(0.3577847479792647 0 0)
(0.342247722349931 0 0)
(0.3379873492278805 0 0)
(0.3285467343432896 0 0)
(0.3293291553120192 0 0)
(0.3233396540743521 0 0)
(0.3214337897113764 0 0)
(0.3223264725601702 0 0)
(0.3295523719061328 0 0)
(0.3432978343470063 0 0)
(0.3575354881665195 0 0)
(0.3568389402332043 0 0)
(0.353037468111846 0 0)
(0.3499647976651067 0 0)
(0.3491520223317928 0 0)
(0.3517345945591726 0 0)
(0.3518361528065809 0 0)
(0.3579999498004512 0 0)
(0.3622417957428291 0 0)
(0.3584231216181777 0 0)
(0.3722635746099978 0 0)
(0.3785619075071306 0 0)
(0.3796293970243133 0 0)
(0.3839913235862087 0 0)
(0.3805058715178878 0 0)
(0.3703002014426118 0 0)
(0.372374896710031 0 0)
(0.3761927831691083 0 0)
(0.3838289216878052 0 0)
(0.3847208583625402 0 0)
(0.3822478279671822 0 0)
(0.3828225820967554 0 0)
(0.3855104732951171 0 0)
(0.3917124049959508 0 0)
(0.3890342308743892 0 0)
(0.3955249124201568 0 0)
(0.3949762758086027 0 0)
(0.401311577357314 0 0)
(0.400951404570681 0 0)
(0.4199116698375481 0 0)
(0.4265825046138011 0 0)
(0.4280711036680976 0 0)
(0.4306438250237985 0 0)
(0.4283266693942623 0 0)
(0.4307402891044261 0 0)
(0.4446675592391739 0 0)
(0.449406590551707 0 0)
(0.4498731093418147 0 0)
(0.4576237378198845 0 0)
(0.4569366513038323 0 0)
(0.4613532942735075 0 0)
(0.4635905179225539 0 0)
(0.4707336069448222 0 0)
(0.462787575225221 0 0)
(0.4643321279653111 0 0)
(0.4654849189946463 0 0)
(0.4670956527811753 0 0)
(0.4686843085949329 0 0)
(0.4741548630866178 0 0)
(0.4759964585723947 0 0)
(0.4760825556131697 0 0)
(0.485588506909819 0 0)
(0.4913397053103079 0 0)
(0.4999755064773326 0 0)
(0.5028038271059571 0 0)
(0.5114017618933703 0 0)
(0.5123543497688208 0 0)
(0.508541589851472 0 0)
(0.5119648027147474 0 0)
(0.505114692712441 0 0)
(0.5083057726268876 0 0)
(0.5093953080793939 0 0)
(0.5230077023830356 0 0)
(0.5221488304286224 0 0)
(0.5312542276274066 0 0)
(0.5364096674647925 0 0)
(0.5379501289499244 0 0)
(0.5368822720757425 0 0)
(0.5424833808787936 0 0)
(0.5441024002845323 0 0)
(0.5428619742366277 0 0)
(0.5473132767211919 0 0)
(0.5275265798074037 0 0)
(0.5269223145662966 0 0)
(0.5277976861799054 0 0)
(0.5278545897507928 0 0)
(0.5332935993691948 0 0)
(0.543590318679492 0 0)
(0.5516176965126827 0 0)
(0.5604946876328937 0 0)
(0.5730215419883821 0 0)
(0.5752585782554633 0 0)
(0.5853225240313029 0 0)
(0.5936717529395917 0 0)
(0.5913418542076959 0 0)
(0.5897010632983117 0 0)
(0.576270778400889 0 0)
(0.5758740392950045 0 0)
(0.5718001235123591 0 0)
(0.5674568001148618 0 0)
(0.5565383362937601 0 0)
(0.5606913263230868 0 0)
(0.5707645759992277 0 0)
(0.5848092196655461 0 0)
(0.6063082227004826 0 0)
(0.606927191035423 0 0)
(0.6120578801699366 0 0)
(0.6139648414695827 0 0)
(0.6100882088784138 0 0)
(0.6144239333107318 0 0)
(0.6182026053517244 0 0)
(0.610525114064784 0 0)
(0.6174783251488996 0 0)
(0.6163564511281366 0 0)
(0.6153064274737154 0 0)
(0.6236315610926793 0 0)
(0.6326952999542426 0 0)
(0.6338273963486142 0 0)
(0.6358002506721793 0 0)
(0.6458214305214274 0 0)
(0.6466546966202085 0 0)
(0.6546730982624412 0 0)
(0.662563960053165 0 0)
(0.6652937097512033 0 0)
(0.6665558917384533 0 0)
(0.665638417624193 0 0)
(0.6698462332253586 0 0)
(0.6707691882498007 0 0)
(0.6722795939899326 0 0)
(0.6740961489047793 0 0)
(0.6825090014883428 0 0)
(0.683803898315432 0 0)
(0.6930472708999698 0 0)
(0.699991541387649 0 0)
(0.7205246173822382 0 0)
(0.7303294573207657 0 0)
(0.7366593909156878 0 0)
(0.7367185551477475 0 0)
(0.7388669045336054 0 0)
(0.7386344916899813 0 0)
(0.736734577606929 0 0)
(0.7337633857811053 0 0)
(0.738762586860532 0 0)
(0.7370560712939392 0 0)
(0.7436029649578363 0 0)
(0.7493038926862378 0 0)
(0.7450550150908298 0 0)
(0.7504718113003848 0 0)
(0.7435043092941036 0 0)
(0.748646937285296 0 0)
(0.752380582596397 0 0)
(0.7673332901670927 0 0)
(0.7734527099525108 0 0)
(0.7775829714534026 0 0)
(0.7800561227360984 0 0)
(0.789909284810539 0 0)
(0.7977698903728262 0 0)
(0.8024740943005683 0 0)
(0.8065820370225422 0 0)
(0.8022275491717391 0 0)
(0.7949133942399812 0 0)
(0.7918325168801326 0 0)
(0.7970246658252836 0 0)
(0.8007032342218405 0 0)
(0.812425253047146 0 0)
(0.8258724261428391 0 0)
(0.8333898715557004 0 0)
(0.8414859560480328 0 0)
(0.8508522974176196 0 0)
(0.8581035121744065 0 0)
(0.8602597589992501 0 0)
(0.8645620092643342 0 0)
(0.8652889890746358 0 0)
(0.8627267131585744 0 0)
(0.863733261435342 0 0)
(0.8611072670664834 0 0)
(0.8587466187495264 0 0)
(0.8702241207405356 0 0)
(0.870555244726576 0 0)
(0.8879384895838403 0 0)
(0.8941941086814178 0 0)
(0.8985529813243835 0 0)
(0.9118497660176922 0 0)
(0.9164788389732607 0 0)
(0.9193445197877536 0 0)
(0.9166954075252767 0 0)
(0.904313810678673 0 0)
(0.9009107877133866 0 0)
(0.8919925920895146 0 0)
(0.8858526383597038 0 0)
(0.8986484449155713 0 0)
(0.8996872450032984 0 0)
(0.9135847777426982 0 0)
(0.9268104538233709 0 0)
(0.943938206215406 0 0)
(0.9563910102615434 0 0)
(0.9661927073868565 0 0)
(0.9581989409912092 0 0)
(0.9586857456332304 0 0)
(0.9517721612970992 0 0)
(0.9558337835721246 0 0)
(0.9514773662671292 0 0)
(0.9440299315854748 0 0)
(0.9512436712903499 0 0)
(0.9522490078995374 0 0)
(0.9674592841607748 0 0)
(0.97999318409391 0 0)
(0.9931356293860257 0 0)
(0.9938084867160226 0 0)
(1.001534392690782 0 0)
(1.00663187008668 0 0)
(1.015224883898348 0 0)
(1.015051346303434 0 0)
(1.013543986851257 0 0)
(1.011586389368395 0 0)
(1.015500353347465 0 0)
(1.01095749342501 0 0)
(1.011468290057981 0 0)
(1.008101808427115 0 0)
(1.017455237443469 0 0)
(1.025903722779127 0 0)
(1.041821272993803 0 0)
(1.051363230269766 0 0)
(1.060751592270487 0 0)
(1.054645099503434 0 0)
(1.055405322774555 0 0)
(1.049348072999654 0 0)
(1.051319439120525 0 0)
(1.042968603411034 0 0)
(1.041909419227544 0 0)
(1.040815297986451 0 0)
(1.058812348498083 0 0)
(1.066505900592196 0 0)
(1.076853950590333 0 0)
(1.081823678196393 0 0)
(1.086795252111443 0 0)
(1.087925647049565 0 0)
(1.083306919032611 0 0)
(1.088391311702624 0 0)
(1.088569663054311 0 0)
(1.085029847889034 0 0)
(1.091774754665467 0 0)
(1.087736161270123 0 0)
(1.091081048871741 0 0)
(1.090050886200282 0 0)
(1.101049765143065 0 0)
(1.104386187557206 0 0)
(1.104282061125696 0 0)
(1.109022814950226 0 0)
(1.110936218372103 0 0)
(1.118123028839681 0 0)
(1.119228008837569 0 0)
(1.113438280575916 0 0)
(1.119414374527582 0 0)
(1.121580438596319 0 0)
(1.126724957616906 0 0)
(1.128129431011381 0 0)
(1.127115107528254 0 0)
(1.133285711544701 0 0)
(1.135902039194476 0 0)
(1.139974713105854 0 0)
(1.140795517482224 0 0)
(1.14278731261133 0 0)
(1.14906578409447 0 0)
(1.159391112974549 0 0)
(1.166412804554678 0 0)
(1.173500564448911 0 0)
(1.173623303532116 0 0)
(1.172168520958464 0 0)
(1.175689356604753 0 0)
(1.176355843586933 0 0)
(1.175297626046607 0 0)
(1.176258257852747 0 0)
(1.178504020175045 0 0)
(1.185995699419182 0 0)
(1.203889489409311 0 0)
(1.211995651181379 0 0)
(1.218349641357892 0 0)
(1.221299098393385 0 0)
(1.224520349854478 0 0)
(1.219627114039389 0 0)
(1.221139802078195 0 0)
(1.208880595177017 0 0)
(1.210204395478288 0 0)
(1.210588775531366 0 0)
(1.227569805133175 0 0)
(1.234672312385797 0 0)
(1.242108369845173 0 0)
(1.246170295121229 0 0)
(1.253538931283115 0 0)
(1.253622909988124 0 0)
(1.256902004011708 0 0)
(1.245031490073746 0 0)
(1.251999780350944 0 0)
(1.254237049809339 0 0)
(1.262513709785192 0 0)
(1.268902019276068 0 0)
(1.279418630304811 0 0)
(1.284217180503439 0 0)
(1.29474689324019 0 0)
(1.288190442001139 0 0)
(1.288965604976384 0 0)
(1.287557742425888 0 0)
(1.288579437540832 0 0)
(1.30101520997664 0 0)
(1.305679222317481 0 0)
(1.314430118217634 0 0)
(1.32739374011164 0 0)
(1.332742381796574 0 0)
(1.340127742469003 0 0)
(1.341621397329395 0 0)
(1.340025989660519 0 0)
(1.336429648574487 0 0)
(1.341725345688636 0 0)
(1.343699094140048 0 0)
(1.358355301646403 0 0)
(1.367784714618876 0 0)
(1.379714485161686 0 0)
(1.386445417819926 0 0)
(1.394139144310554 0 0)
(1.392031419902323 0 0)
(1.392642557454337 0 0)
(1.384363911793881 0 0)
(1.390765455732409 0 0)
(1.385408390136394 0 0)
(1.390697611734764 0 0)
(1.398599502302889 0 0)
(1.412795864524825 0 0)
(1.42762317018286 0 0)
(1.433472910491577 0 0)
(1.43519946640128 0 0)
(1.43048613544664 0 0)
(1.431458578369808 0 0)
(1.428825462703393 0 0)
(1.424131209811603 0 0)
(1.425354368543563 0 0)
(1.429186242466573 0 0)
(1.440541252781057 0 0)
(1.453093242132668 0 0)
(1.464734218190081 0 0)
(1.469376617073522 0 0)
(1.468273580072149 0 0)
(1.473415536156984 0 0)
(1.461158882361156 0 0)
(1.458387856572754 0 0)
(1.460560543062664 0 0)
(1.461390200301237 0 0)
(1.47477002285461 0 0)
(1.485460954481193 0 0)
(1.49374295716143 0 0)
(1.502096172283488 0 0)
(1.510674866513191 0 0)
(1.518122959062381 0 0)
(1.521389593652953 0 0)
(1.518616750620313 0 0)
(1.520784759300599 0 0)
(1.53073921098565 0 0)
(1.534789807934662 0 0)
(1.540774478328221 0 0)
(1.540111631805794 0 0)
(1.543713018231072 0 0)
(1.552487357126978 0 0)
(1.55953301736827 0 0)
(1.571971024677426 0 0)
(1.574683708954112 0 0)
(1.583222894040561 0 0)
(1.589650242416673 0 0)
(1.595128556677314 0 0)
(1.595043480232864 0 0)
(1.590278412442962 0 0)
(1.584772518110652 0 0)
(1.585741130746972 0 0)
(1.596804435422893 0 0)
(1.604663108150066 0 0)
(1.614734544578431 0 0)
(1.623567118933508 0 0)
(1.636892002485314 0 0)
(1.644039633152823 0 0)
(1.649526054700696 0 0)
(1.637760407009744 0 0)
(1.640393363012183 0 0)
(1.630565170074836 0 0)
(1.638210469709499 0 0)
(1.641762162181565 0 0)
(1.650650437852312 0 0)
(1.661768540930957 0 0)
(1.671452095710929 0 0)
(1.683995523349713 0 0)
(1.687560276962825 0 0)
(1.69116480923732 0 0)
(1.69381562916842 0 0)
(1.689793143886069 0 0)
(1.696950959495003 0 0)
(1.692815387913853 0 0)
(1.699012813521999 0 0)
(1.712080985778359 0 0)
(1.716108905161321 0 0)
(1.721657609249106 0 0)
(1.732204467901074 0 0)
(1.734493534430865 0 0)
(1.740747632537622 0 0)
(1.748471025745794 0 0)
(1.757458543008078 0 0)
(1.762472632234469 0 0)
(1.775333640631123 0 0)
(1.778385281214065 0 0)
(1.792906462335109 0 0)
(1.791396532533808 0 0)
(1.801334723980268 0 0)
(1.799054453081202 0 0)
(1.805373388506928 0 0)
(1.801720787525553 0 0)
(1.802957714366835 0 0)
(1.80236244389995 0 0)
(1.805862939943655 0 0)
(1.825610371258273 0 0)
(1.836833183746883 0 0)
(1.849376020447019 0 0)
(1.860227598838083 0 0)
(1.864071126091638 0 0)
(1.870674467660683 0 0)
(1.870880631404939 0 0)
(1.867513159520285 0 0)
(1.866094380667552 0 0)
(1.859792874691381 0 0)
(1.868707600621131 0 0)
(1.879992030858804 0 0)
(1.89741403668315 0 0)
(1.907448229074989 0 0)
(1.916581892474222 0 0)
(1.923986239451773 0 0)
(1.930769120680346 0 0)
(1.927021227602545 0 0)
(1.929474546655055 0 0)
(1.919154710436455 0 0)
(1.923343486801081 0 0)
(1.929037805606043 0 0)
(1.941652509076929 0 0)
(1.953902827977156 0 0)
(1.967580716842459 0 0)
(1.97251200782038 0 0)
(1.983326571453102 0 0)
(1.983607594493485 0 0)
(1.982016283400724 0 0)
(1.980717574229038 0 0)
(1.977031917024011 0 0)
(1.987812207484961 0 0)
(1.999443632467324 0 0)
(2.007089641400783 0 0)
(2.023219429740231 0 0)
(2.031051645723956 0 0)
(2.039804760517324 0 0)
(2.047591243637738 0 0)
(2.048998696267128 0 0)
(2.050263467279486 0 0)
(2.050775925705902 0 0)
(2.055224230604719 0 0)
(2.063213471610559 0 0)
(2.078261587122278 0 0)
(2.092261047210738 0 0)
(2.101672987246152 0 0)
(2.113691180041105 0 0)
(2.123481262482445 0 0)
(2.132907947655941 0 0)
(2.140567485226187 0 0)
(2.146385917415272 0 0)
(2.153472331973669 0 0)
(2.163453002481194 0 0)
(2.166850368441762 0 0)
(2.167338318204762 0 0)
(2.168074377386278 0 0)
(2.164562925506125 0 0)
(2.168733783334365 0 0)
(2.169749526812548 0 0)
(2.177083520849362 0 0)
(2.19105574759073 0 0)
(2.197938748804072 0 0)
(2.209343073001288 0 0)
(2.221595648095553 0 0)
(2.225107143758039 0 0)
(2.232464941895323 0 0)
(2.237207799076947 0 0)
(2.241158191641416 0 0)
(2.251135907674853 0 0)
(2.257663388400279 0 0)
(2.263961603471401 0 0)
(2.270954794974521 0 0)
(2.276551351419736 0 0)
(2.285064494078756 0 0)
(2.296694331433523 0 0)
(2.30819484266405 0 0)
(2.322623950604257 0 0)
(2.332248615509853 0 0)
(2.342503753567637 0 0)
(2.354026757225953 0 0)
(2.362957166464758 0 0)
(2.370786152460524 0 0)
(2.373136928963634 0 0)
(2.378615184505372 0 0)
(2.380428921839578 0 0)
(2.382678491786451 0 0)
(2.386625226273165 0 0)
(2.389148689699795 0 0)
(2.395887424760501 0 0)
(2.410758448578412 0 0)
(2.418983003534178 0 0)
(2.432041640063861 0 0)
(2.44526419395305 0 0)
(2.448882100411695 0 0)
(2.459139685858793 0 0)
(2.463299306993019 0 0)
(2.462970199350152 0 0)
(2.463549480611839 0 0)
(2.466230524612114 0 0)
(2.462645867758475 0 0)
(2.476987525871615 0 0)
(2.485729811943376 0 0)
(2.499672521350306 0 0)
(2.507752699364837 0 0)
(2.520728318014488 0 0)
(2.525683060330425 0 0)
(2.532439771914802 0 0)
(2.531606902484741 0 0)
(2.534184378734583 0 0)
(2.533341497075231 0 0)
(2.538150781814536 0 0)
(2.548211823252209 0 0)
(2.553322183711095 0 0)
(2.565128063507879 0 0)
(2.573063698132605 0 0)
(2.579613910901164 0 0)
(2.587339601018762 0 0)
(2.590915330605295 0 0)
(2.592646413877248 0 0)
(2.597210445349033 0 0)
(2.607968325860124 0 0)
(2.614088959518642 0 0)
(2.62292435270527 0 0)
(2.630291447754509 0 0)
(2.631035040949888 0 0)
(2.661685679612524 0 0)
)
;

boundaryField
{
    inlet
    {
        type            calculated;
        value           uniform (0.09620440111059167 0 0);
    }
    outlet
    {
        type            calculated;
        value           uniform (2.661685679612524 0 0);
    }
    frontAndBack
    {
        type            empty;
    }
}


// ************************************************************************* //
