/*--------------------------------*- C++ -*----------------------------------*\
| =========                 |                                                 |
| \\      /  F ield         | OpenFOAM: The Open Source CFD Toolbox           |
|  \\    /   O peration     | Version:  v2012                                 |
|   \\  /    A nd           | Website:  www.openfoam.com                      |
|    \\/     M anipulation  |                                                 |
\*---------------------------------------------------------------------------*/
FoamFile
{
    version     2.0;
    format      ascii;
    class       volScalarField;
    location    "0.008";
    object      p;
}
// * * * * * * * * * * * * * * * * * * * * * * * * * * * * * * * * * * * * * //

dimensions      [1 -1 -2 0 0 0 0];


internalField   nonuniform List<scalar> 
1000
(
101311.5914075219
101314.2353066594
101307.4591512717
101302.1345285506
101296.232409302
101290.9069289989
101286.3135136204
101282.3831265696
101278.971625868
101276.589007879
101275.8662380225
101275.8623495162
101276.1763539624
101277.0900784819
101278.9499957048
101281.8527381043
101285.6970980737
101290.2993791179
101295.5033443409
101301.2035353396
101307.3177856749
101313.7591803696
101320.4244671034
101327.192291358
101333.9261183156
101340.4848041676
101346.744833399
101352.6346156893
101358.1634744936
101363.3801504292
101368.1399421048
101371.7048872134
101373.2166393466
101373.3943755863
101373.3359875347
101373.1188186922
101372.4683475228
101371.1433114817
101368.9063980537
101365.627875805
101361.3257605453
101356.1545045133
101350.3352075701
101344.0762651433
101337.5336863544
101330.8194584446
101324.0301573123
101317.2679940647
101310.6420696178
101304.2428448607
101298.0975867039
101292.1626407386
101286.460260843
101281.4422478784
101278.1916580134
101277.163693646
101277.0985160601
101277.1265858349
101277.3523627214
101277.911284842
101279.0361596482
101280.9370788868
101283.7832549564
101287.651081677
101292.4988215684
101298.1726956897
101304.4485544543
101311.0919904028
101317.9058979904
101324.7446761877
101331.5048578283
101338.1211270709
101344.5792743991
101350.919971428
101357.184316211
101363.2377853615
101368.4315460159
101371.5866797807
101372.4968144496
101372.5553699212
101372.4996813818
101372.3267335861
101371.850831562
101370.9057616447
101369.2935562716
101366.8360880715
101363.4071461884
101358.9688951452
101353.5894375827
101347.4341444933
101340.7337850922
101333.7387378366
101326.6702887075
101319.682124181
101312.8430712192
101306.1422459506
101299.5156533984
101292.9257766979
101286.5881989311
101281.3554182444
101278.4783079379
101277.7945802374
101277.7748782201
101277.8050346399
101277.9887910431
101278.4291913924
101279.2976862178
101280.767075661
101283.0058572714
101286.1473712686
101290.2615973734
101295.3304363268
101301.2382935667
101307.7874176519
101314.7357791179
101321.8448335325
101328.9257684882
101335.8771066755
101342.7008304076
101349.4729500012
101356.2347633198
101362.7510977965
101368.1511719792
101371.168947418
101371.9303324645
101371.9710264175
101371.9271548561
101371.789180532
101371.4164466295
101370.6771701722
101369.4086774244
101367.4473674807
101364.6469304486
101360.9060399218
101356.1930875083
101350.5625849536
101344.1584981739
101337.1975207443
101329.926930148
101322.5653220276
101315.2500862694
101308.0167229258
101300.8284257056
101293.6912842921
101286.9348425161
101281.5867649807
101278.8721814846
101278.2988522417
101278.2865151354
101278.3127313594
101278.4627424064
101278.8206055942
101279.5245083453
101280.7197137451
101282.5578205886
101285.1773925744
101288.6837257286
101293.1253115212
101298.4743315119
101304.6206276016
101311.3840040516
101318.544161803
101325.886206516
101333.2539497905
101340.5871882083
101347.9050159349
101355.1915638984
101362.1293071172
101367.7374032704
101370.7474707404
101371.4700636533
101371.5074514573
101371.4729642286
101371.3637583653
101371.0654773518
101370.4696753217
101369.4387574786
101367.8271815961
101365.4921664986
101362.3133136958
101358.2129607644
101353.1748935756
101347.2584691477
101340.6004491868
101333.3942551798
101325.8458770456
101318.1220624266
101310.3165228188
101302.4659469277
101294.6707058939
101287.4039405712
101281.8603569327
101279.2206393897
101278.7095168744
101278.700001742
101278.722064036
101278.8464274648
101279.1428633911
101279.7267468045
101280.7224014739
101282.2647666674
101284.4862762809
101287.5025380356
101291.3934505893
101296.1843679711
101301.8342777338
101308.2354800922
101315.2268622271
101322.6241392485
101330.2655276561
101338.0524601956
101345.943321142
101353.843723533
101361.3264607857
101367.2712859944
101370.36993088
101371.0890831147
101371.1261398156
101371.098604484
101371.0110844815
101370.7680359574
101370.2786149236
101369.4249014242
101368.0781259005
101366.1049505605
101363.3814906345
101359.8088447792
101355.3292373777
101349.9414889719
101343.7099445016
101336.7571076141
101329.2362029501
101321.2928346184
101313.0360978904
101304.5538292891
101296.0411450563
101288.1349898966
101282.236841344
101279.5464369875
101279.0538131349
101279.0442390538
101279.0625154718
101279.1666517249
101279.4157520313
101279.9080090553
101280.7509063867
101282.0642148515
101283.9708929172
101286.5869540722
101290.0068424578
101294.2874789497
101299.4360491962
101305.4047485339
101312.0946407253
101319.3734520901
101327.1089614744
101335.2021843724
101343.5805760188
101352.088834517
101360.1979899936
101366.6367092067
101369.980938362
101370.759916904
101370.8023822661
101370.7806534193
101370.7106833763
101370.5108354615
101370.1038638505
101369.3876202089
101368.2482431344
101366.5635477893
101364.2129838143
101361.0890341095
101357.1099972673
101352.2338035686
101346.4685150619
101339.8714890787
101332.533523981
101324.5541843808
101316.0240191421
101307.0467934421
101297.8774022088
101289.2775327942
101282.8416717456
101279.9025760178
101279.3572532862
101279.3426767792
101279.3567763417
101279.4430892178
101279.6526768125
101280.0708976252
101280.7917524027
101281.9218282276
101283.5738638486
101285.8596762584
101288.8790606817
101292.7070783758
101297.3833906196
101302.9056241914
101309.2284546278
101316.2732503664
101323.9508403985
101332.1847521018
101340.8997310829
101349.913803629
101358.6448922976
101365.7161793736
101369.51532649
101370.4569305744
101370.5166998211
101370.5001540171
101370.4457921298
101370.2821601268
101369.9426559507
101369.3375353467
101368.3656168957
101366.9156894209
101364.8735277027
101362.129893866
101358.5901285163
101354.1854795821
101348.882828894
101342.6866006627
101335.6303620628
101327.7629213951
101319.1407077298
101309.8558421292
101300.175826694
101290.9068620349
101283.7656407457
101280.3370228418
101279.6403399676
101279.612416184
101279.6220564401
101279.6916709361
101279.8660028391
101280.2209616509
101280.8398456927
101281.8183033107
101283.2594929216
101285.269206007
101287.9475468598
101291.3792468709
101295.6251326598
101300.7156506126
101306.6477009494
101313.3892919797
101320.8944392819
101329.1178140495
101337.9996471762
101347.3647689694
101356.6412457749
101364.4318685091
101368.9084625368
101370.1555229215
101370.2554384078
101370.2435730068
101370.2034795599
101370.0715217574
101369.7897161424
101369.2779182895
101368.445428919
101367.1908934284
101365.4072703351
101362.9871733587
101359.829806865
101355.8498460075
101350.9855444462
101345.2014782963
101338.4848194453
101330.8389931649
101322.2829302485
101312.8805707133
101302.8718768941
101293.0243172143
101285.0709809849
101280.905694609
101279.9221752476
101279.8642749586
101279.8696701572
101279.9238045765
101280.0658256406
101280.3647662098
101280.8953345955
101281.7443360396
101283.0065890881
101284.7815578469
101287.1671406229
101290.2525510877
101294.1118392652
101298.7981089268
101304.3394816664
101310.7409297666
101317.9937762522
101326.0840128035
101334.976127086
101344.5249561389
101354.2211729867
101362.7414752051
101368.0879277583
101369.825564908
101370.0092816172
101370.0022225713
101369.9749716214
101369.8709058221
101369.6396209334
101369.2083451593
101368.4949800804
101367.4066422242
101365.8432588692
101363.700943043
101360.8769226901
101357.2763347454
101352.8185464724
101347.4398364511
101341.0925232412
101333.7434474428
101325.3768914988
101316.0218100467
101305.8665448748
101295.5794745354
101286.7977786139
101281.6802308785
101280.2274436161
101280.1050719855
101280.1064103968
101280.1468183843
101280.2593780962
101280.5080005547
101280.960369219
101281.6961701636
101282.8031943814
101284.374978024
101286.5061472846
101289.2873461567
101292.8004303482
101297.1134499683
101302.2765215077
101308.3222666108
101315.271733481
101323.1383860936
101331.9129544207
101341.4913178202
101351.4569631189
101360.6373806116
101366.9765558983
101369.4235698698
101369.7694041702
101369.7713003506
101369.7547556959
101369.6749021984
101369.488109902
101369.127332429
101368.5176107981
101367.573231485
101366.200465148
101364.2995527119
101361.7682294417
101358.5068385124
101354.4229839549
101349.4338103849
101343.4668395855
101336.4612162561
101328.371981063
101319.1931536769
101309.0529993363
101298.4907280681
101288.9566397677
101282.742479912
101280.5946576456
101280.3401552574
101280.3363426736
101280.3650135259
101280.4512769143
101280.6547752493
101281.0371986985
101281.672491817
101282.6425398527
101284.0355713551
101285.9426318111
101288.4540665191
101291.6559331694
101295.6256620567
101300.4282831296
101306.1163238484
101312.7333297173
101320.3150149698
101328.8763679315
101338.3558831956
101348.4385673884
101358.1475461034
101365.5065704803
101368.8858381395
101369.5248886729
101369.5480510833
101369.5394235766
101369.4802348087
101369.3324092616
101369.0336391631
101368.5150800427
101367.6970857328
101366.4915785195
101364.803069512
101362.5312510406
101359.5747698439
101355.8344439917
101351.2151089784
101345.6274455882
101338.9905375669
101331.2361204484
101322.3271948831
101312.3342290448
101301.6625631785
101291.5226072764
101284.1689616765
101281.0825786439
101280.5770719978
101280.562022387
101280.5807582422
101280.6441146051
101280.8076030777
101281.1273814841
101281.6727176032
101282.5204688127
101283.7541643562
101285.4613166405
101287.731024904
101290.6511920068
101294.3047649329
101298.7665610333
101304.1030454713
101310.374151763
101317.6326674259
101325.9141086989
101335.1955904259
101345.2574415068
101355.3300679296
101363.6366322526
101368.1317235189
101369.2546554577
101369.33048636
101369.3273425032
101369.2850183467
101369.1710455095
101368.9267162454
101368.4887424211
101367.7826957129
101366.7255213037
101365.2259406642
101363.1864275342
101360.5058915923
101357.0817406327
101352.8114054254
101347.5946869052
101341.3366522558
101333.9512144419
101325.3758485591
101315.631040033
101304.9996958571
101294.438429619
101286.0108268197
101281.7704698688
101280.8342882673
101280.7832893781
101280.795290606
101280.8392469571
101280.9676896741
101281.2316068667
101281.6962288453
101282.4340136801
101283.5243186938
101285.0513070155
101287.1023227245
101289.7655873105
101293.1269642811
101297.2674859701
101302.2631351741
101308.1853849614
101315.0996188868
101323.057803988
101332.0692876098
101341.9957682356
101352.2615799516
101361.3641481295
101367.0746499421
101368.9195756938
101369.115618853
101369.1177331839
101369.0886463575
101369.0035125597
101368.8067005726
101368.440025215
101367.8336223178
101366.9089756167
101365.5788852722
101363.7490489414
101361.3198419475
101358.1875198073
101354.2455689045
101349.3872245633
101343.508099563
101336.5089503831
101328.3073919471
101318.8835210149
101308.4167918851
101297.6254523588
101288.2801313948
101282.7503683615
101281.1443474603
101281.0018860105
101281.00873082
101281.0369936587
101281.13536377
101281.3497889958
101281.7420867788
101282.3806672822
101283.3411354088
101284.7045200984
101286.5561286843
101288.9835164796
101292.0737613088
101295.9116747392
101300.5795393728
101306.1566668265
101312.717467439
101320.3266404167
101329.0189659346
101338.7211855707
101349.0243485895
101358.7253684384
101365.640801632
101368.4571674117
101368.897481173
101368.909620418
101368.8910860945
101368.8300576978
101368.6742512468
101368.3705266423
101367.8529858424
101367.0472875947
101365.8701774329
101364.2307885625
101362.0316809619
101359.1694699293
101355.5361152259
101351.0213299571
101345.5146237784
101338.9074045944
101331.1025491365
101322.0489926566
101311.8432800598
101300.9974136876
101290.9473223006
101284.1065759963
101281.5627583746
101281.2229873807
101281.2210130971
101281.2369376735
101281.3102213671
101281.4812832281
101281.8090176647
101282.3580607385
101283.2005773619
101284.4146482264
101286.0833785234
101288.293025136
101291.1307897427
101294.6836097354
101299.0377334339
101304.2775676177
101310.4838590668
101317.7309265675
101326.072764911
101335.4856934516
101345.6957193618
101355.7854206859
101363.789362467
101367.7845431317
101368.6571677705
101368.7040834921
101368.6924744811
101368.6512200567
101368.5304357727
101368.2820207608
101367.8436793624
101367.1449810543
101366.1064855086
101364.6408346547
101362.6531928028
101360.0415595636
101356.6980430522
101352.5109356686
101347.3660822745
101341.1485929996
101333.7509037462
101325.0986634957
101315.224364599
101304.4718563701
101293.9492161449
101285.8941810254
101282.1707810259
101281.4591633967
101281.431167991
101281.4388935337
101281.491516195
101281.6250193072
101281.8954853665
101282.3638425254
101283.0990977064
101284.1765137884
101285.6768750445
101287.684741543
101290.2867544275
101293.5708380009
101297.6255059219
101302.5382832666
101308.3943043461
101315.2749988853
101323.2483315874
101332.3270907866
101342.3418531957
101352.624265723
101361.5227046912
101366.8090914961
101368.3596958464
101368.5000066074
101368.493493001
101368.4678269072
101368.3764590879
101368.1763780947
101367.8084407789
101367.2060269757
101366.2933857688
101364.9866519375
101363.1938392992
101360.815037418
101357.7436458281
101353.8679620377
101349.071951818
101343.2368498964
101336.2480761522
101328.0142744863
101318.5197625031
101307.9771617523
101297.2035804679
101288.1253248995
101283.0638437083
101281.7383894397
101281.639727016
101281.6419802515
101281.6784259959
101281.77972155
101281.9997514665
101282.3956509976
101283.0334382816
101283.9856475804
101285.3306532496
101287.1510752897
101289.532561701
101292.5632088302
101296.3325567406
101300.9298699328
101306.4432816894
101312.9593280982
101320.5557501543
101329.271463297
101339.0155559433
101349.3233154187
101358.8833293713
101365.4518186194
101367.9462080482
101368.2917260282
101368.2948322853
101368.2809874925
101368.2136979748
101368.0554610842
101367.7498695874
101367.2340103586
101366.4357039501
101365.2745167851
101363.6614574491
101361.4991978344
101358.6831904091
101355.1026962187
101350.6411375721
101345.1777810273
101338.5936499957
101330.7851978517
101321.7012720654
101311.4554560271
101300.6237296038
101290.7668426783
101284.331610862
101282.1130640456
101281.8495980615
101281.8456799431
101281.8696829764
101281.9439778044
101282.1200218891
101282.451145079
101283.0005600236
101283.8380815883
101285.03960814
101286.6856845831
101288.8606848839
101291.6522697529
101295.1501057718
101299.4442611055
101304.6248726601
101310.7819776947
101317.9998658041
101326.3358238665
101335.7565508895
101345.956075383
101355.9421880995
101363.6684498267
101367.3327736244
101368.065472871
101368.097554953
101368.0913133005
101368.043517193
101367.9211715692
101367.6704541215
101367.2322195931
101366.5377032134
101365.509830125
101364.0627021349
101362.1019096779
101359.5254383163
101356.2241553068
101352.0819665379
101346.9776544324
101340.7897829118
101333.4062297717
101324.7502443674
101314.8626172003
101304.1289759348
101293.7509131601
101286.0352031445
101282.661720597
101282.0704127371
101282.049657179
101282.0642977429
101282.1162693874
101282.2544631656
101282.5280250029
101282.9975572221
101283.7301587868
101284.7992014612
101286.2830840903
101288.2647005933
101290.8308008992
101294.0705405566
101298.0741736792
101302.9330925805
101308.7395441627
101315.5819949671
101323.530511815
101332.5933039658
101342.583734328
101352.7828983026
101361.4596208441
101366.4255380799
101367.7902051009
101367.9009506864
101367.8996996233
101367.8667693654
101367.774956459
101367.5725640541
101367.2043525889
101366.6046668726
101365.6993047999
101364.4050127647
101362.6300733368
101360.2751916107
101357.2339463214
101353.3931773426
101348.6343019454
101342.8358279339
101335.8795038745
101327.6695425941
101318.1937195125
101307.6867955709
101297.0244053081
101288.2200555443
101283.4900950246
101282.3237518403
101282.212090263
101282.1759172571
101282.1912639441
101282.2732435422
101282.4730531264
101282.8498899813
101283.4667856748
101284.3926177123
101285.7046140796
101287.4895649751
101289.8418676317
101292.8574099719
101296.6258514101
101301.2261844862
101306.7275507261
101313.1926488472
101320.6729631534
101329.1963676137
101338.6749732717
101348.6890357416
101357.9607738554
101364.1314737752
101366.6648773237
101367.3860388667
101368.384811597
101369.3921754314
101370.5314342354
101371.6992789794
101372.7824714798
101373.6821461762
101374.2649957728
101374.460219574
101374.2843412191
101373.6257107051
101372.2277143133
101369.8616973139
101366.2968345001
101361.2955818031
101354.6116806888
101346.0193945945
101335.4185380834
101323.1902311887
101310.2811017356
101299.0001066709
101291.7807322054
101287.9831482469
101286.0264120534
101285.1706240962
101285.0445056584
101285.2518179272
101285.5915216392
101286.0004072975
101286.5687878558
101287.4041879698
101288.58466322
101290.1932539508
101292.3014469775
101295.0054810508
101298.421685715
101302.6645684967
101307.8261792977
101313.9832058234
101321.210510245
101329.5362082502
101338.8062301335
101348.517128543
101357.7957356671
101365.2143017837
101369.4517574742
101370.6758069042
101371.4199114224
101372.2086731075
101373.1082053065
101374.0527427735
101374.9451614871
101375.7019259731
101376.2436299654
101376.4442116542
101376.2396238949
101375.5808218041
101374.2841977396
101372.2132555606
101369.1859784781
101364.9437336354
101359.1954857465
101351.6790084182
101342.1963586356
101330.8544714395
101318.402315033
101306.4072413452
101297.5094706946
101292.5190582831
101289.923155476
101288.602444084
101288.1841106443
101288.3324004804
101288.7119366342
101289.1976449896
101289.8248005467
101290.6617366711
101291.7621109304
101293.2182382283
101295.1088613539
101297.5390519278
101300.6403005522
101304.5496770138
101309.370287949
101315.1704611434
101322.0135815554
101329.9250018046
101338.9673801451
101347.9933660252
101361.3547412142
)
;

boundaryField
{
    inlet
    {
        type            uniformFixedValue;
        uniformValue    sine;
        uniformValueCoeffs
        {
            frequency       constant 3000;
            scale           constant 50;
            level           constant 101325;
        }
        value           uniform 101325;
    }
    outlet
    {
        type            characteristicVelocityInletOutletPressure;
        UName           U;
        pName           p;
        TName           T;
        phiName         phi;
        rhoName         rho;
        U               (0 0 0);
        p               101325;
        T               300;
        value           uniform 101361.3547412142;
    }
    frontAndBack
    {
        type            empty;
    }
}


// ************************************************************************* //
