/*--------------------------------*- C++ -*----------------------------------*\
| =========                 |                                                 |
| \\      /  F ield         | OpenFOAM: The Open Source CFD Toolbox           |
|  \\    /   O peration     | Version:  v2012                                 |
|   \\  /    A nd           | Website:  www.openfoam.com                      |
|    \\/     M anipulation  |                                                 |
\*---------------------------------------------------------------------------*/
FoamFile
{
    version     2.0;
    format      ascii;
    class       volScalarField;
    location    "0.008";
    object      pMean;
}
// * * * * * * * * * * * * * * * * * * * * * * * * * * * * * * * * * * * * * //

dimensions      [1 -1 -2 0 0 0 0];


internalField   nonuniform List<scalar> 
1000
(
101325.0313577392
101325.0045477663
101325.021835662
101325.0382149283
101325.0614232651
101325.0894623486
101325.1207328731
101325.1577768758
101325.1973453308
101325.2404119619
101325.2845951381
101325.3288519496
101325.372905973
101325.4164548911
101325.4587189172
101325.498897048
101325.5360013765
101325.5693949803
101325.5983027961
101325.6224231411
101325.641141784
101325.6543059957
101325.6614868397
101325.6627079264
101325.6577731714
101325.646933892
101325.6302426008
101325.6081615162
101325.5808781349
101325.5488256134
101325.512140889
101325.4716426782
101325.4287383593
101325.3852635935
101325.3417183404
101325.2983384864
101325.255336721
101325.2132213059
101325.172696863
101325.1346422571
101325.0999818952
101325.069563853
101325.0440743511
101325.0240003414
101325.0096739893
101325.0012997368
101324.9990020694
101325.0028022211
101325.0126344264
101325.02831672
101325.0496415801
101325.0764086981
101325.1084556356
101325.1454142373
101325.1862223486
101325.2289479385
101325.2720665955
101325.3151730928
101325.3581244372
101325.4007833758
101325.4426250709
101325.4831788978
101325.5215445651
101325.5569647522
101325.5884131655
101325.6152029764
101325.6365687395
101325.6521944908
101325.6617113353
101325.6651524979
101325.6624196986
101325.6537332762
101325.63910269
101325.6187751819
101325.5927126552
101325.5611311859
101325.5243109675
101325.4836611681
101325.441167972
101325.3984200029
101325.3556359426
101325.3129838335
101325.2706128328
101325.2288809174
101325.1882858432
101325.1495154066
101325.1133745656
101325.0807624787
101325.0525477531
101325.0295152904
101325.0122486362
101325.001138357
101324.9963391316
101324.9978679173
101325.0056042077
101325.0194335194
101325.0392467814
101325.0650364459
101325.0967012391
101325.1337079451
101325.1744592284
101325.2167480261
101325.2592540081
101325.3017562049
101325.3441194295
101325.38625676
101325.4277533679
101325.468262098
101325.5070560955
101325.5434979073
101325.5766301364
101325.6056994814
101325.6297865284
101325.6483342077
101325.6607605008
101325.6669253655
101325.6666594569
101325.6601458438
101325.6473839919
101325.6285610344
101325.6035830798
101325.5726307212
101325.5361282424
101325.4957751655
101325.4537429682
101325.4115143174
101325.3692521196
101325.3271022882
101325.2851641698
101325.2437360072
101325.2031894497
101325.1641006033
101325.1271269056
101325.0930959988
101325.0628393163
101325.0372372255
101325.01702295
101325.0028244494
101324.9950036743
101324.9937742877
101324.9991238858
101325.0110237328
101325.0293941344
101325.0542502871
101325.0854222057
101325.1221989285
101325.1626747921
101325.2045494427
101325.246589689
101325.2886334138
101325.3305566073
101325.3723021991
101325.413521817
101325.4539453635
101325.4929612841
101325.53003396
101325.5643101615
101325.5950741212
101325.6213945333
101325.6426047875
101325.657963025
101325.6671169945
101325.6697049018
101325.6657362337
101325.6551101067
101325.6379450284
101325.6141443611
101325.58393176
101325.5478812471
101325.5078942806
101325.466266773
101325.424451121
101325.3826006773
101325.340847027
101325.2992547666
101325.2580793215
101325.217611665
101325.1783420973
101325.1408192055
101325.1057812389
101325.0739858939
101325.0463063759
101325.0235232443
101325.0064027525
101324.9954898853
101324.9912238236
101324.9938009626
101325.0033718422
101325.0199650895
101325.0436464873
101325.0741767599
101325.1106429916
101325.1508464167
101325.1923724869
101325.2340369013
101325.2757106023
101325.317278333
101325.358704033
101325.3996889527
101325.4400168143
101325.4791624095
101325.5166721565
101325.5517878475
101325.583855783
101325.6119824236
101325.635470811
101325.6534991539
101325.6655594138
101325.671109511
101325.6699527421
101325.6618151105
101325.6466739372
101325.6243649493
101325.595110513
101325.5596163175
101325.519996595
101325.4787130569
101325.4372385766
101325.395728307
101325.3543017803
101325.3130008489
101325.2720464091
101325.2316716553
101325.1922986768
101325.1543901936
101325.1186022255
101325.0856134713
101325.0562534034
101325.0312987583
101325.0115768209
101324.9977531164
101324.9904494685
101324.9900716741
101324.9969900146
101325.0114177501
101325.0335451317
101325.063142145
101325.0991361782
101325.1390374046
101325.1802610667
101325.2216148757
101325.2629803889
101325.3042532591
101325.3454113533
101325.3861940943
101325.4264250652
101325.4656487236
101325.5034763862
101325.539234557
101325.572332328
101325.6019343258
101325.6273497268
101325.6477300136
101325.6624703922
101325.6708953885
101325.6726209055
101325.6671907952
101325.654397327
101325.6339454897
101325.6059827184
101325.5712714293
101325.5320955689
101325.4911320728
101325.4499489877
101325.4087290582
101325.3675813122
101325.3265323812
101325.2857737702
101325.2454964965
101325.2060673916
101325.1678804313
101325.1315175746
101325.0975855942
101325.0668554572
101325.0400752727
101325.0180867648
101325.0016254738
101324.9914392533
101324.9881108699
101324.9922162264
101325.004176699
101325.0243559126
101325.0526190864
101325.0878449402
101325.1273345709
101325.1682698718
101325.2093549968
101325.2504538432
101325.2914735461
101325.332399358
101325.3730051232
101325.4131427845
101325.4524136337
101325.4904800976
101325.5267438945
101325.5606713487
101325.5914903419
101325.6185345667
101325.6409622939
101325.6581130523
101325.6692241396
101325.6737642484
101325.6711172297
101325.6608892533
101325.6426292166
101325.6163463589
101325.5827485426
101325.5441787228
101325.5035480938
101325.462625182
101325.4216622447
101325.3807603758
101325.3399354303
101325.2993536431
101325.2591745321
101325.2197179694
101325.181324742
101325.1445110041
101325.1098205417
101325.0779626614
101325.0496463126
101325.0256996478
101325.006891986
101324.9940496986
101324.9878872382
101324.989146665
101324.9984405945
101325.016317483
101325.0428084607
101325.0768876186
101325.1157902626
101325.1564224855
101325.1972639051
101325.2381212339
101325.2789131703
101325.3196300535
101325.3600751208
101325.4001213603
101325.4394187131
101325.477669725
101325.5143406483
101325.5489478426
101325.5807818873
101325.6092087901
101325.6334118568
101325.6527043949
101325.6662743905
101325.6734840517
101325.6735946155
101325.6660522302
101325.6502527103
101325.6260282676
101325.5939243992
101325.5561929163
101325.5159464515
101325.4752671988
101325.4345388018
101325.393861866
101325.3532427697
101325.3128253799
101325.2727449606
101325.2332812397
101325.1947328891
101325.1575592522
101325.122249462
101325.0894536227
101325.059838172
101325.034202558
101325.0133246808
101324.998071265
101324.9892453178
101324.9877084413
101324.9942281964
101325.0095235727
101325.0338326285
101325.0663555329
101325.1044361931
101325.1447176485
101325.1853274949
101325.225959061
101325.2665380785
101325.3070592432
101325.3473516816
101325.3873062543
101325.4266128201
101325.4650075104
101325.5020113196
101325.5371843207
101325.5698746793
101325.599483523
101325.6252279979
101325.646416552
101325.6622152497
101325.6719170464
101325.6746981179
101325.6698806362
101325.6567274391
101325.6348849785
101325.6046587627
101325.5680557346
101325.5282926493
101325.4878559874
101325.4473473025
101325.4068818844
101325.3664574405
101325.3261982431
101325.2862192441
101325.2467661561
101325.2081023954
101325.1706385853
101325.1348172074
101325.1012339018
101325.0705123972
101325.043415981
101325.0207138115
101325.0032851052
101324.9919849138
101324.9877519979
101324.9914678759
101325.0039940962
101325.0257831788
101325.0563466779
101325.093311694
101325.1331499949
101325.1735284277
101325.2139441068
101325.2543187772
101325.2946512208
101325.3347936606
101325.3746524938
101325.41395184
101325.4524564717
101325.4897338409
101325.5253827882
101325.5588027604
101325.5894303227
101325.6165201533
101325.6393892115
101325.657201516
101325.6692107176
101325.6745402852
101325.6724244706
101325.6620210609
101325.6428044979
101325.6148064458
101325.5796657888
101325.5405458241
101325.5003704656
101325.460071865
101325.4198095318
101325.3795734664
101325.3394708209
101325.2995986519
101325.2601729692
101325.2214273846
101325.1837304673
101325.1474840134
101325.1132344376
101325.0815645088
101325.0531979078
101325.0288839737
101325.0094954485
101324.9959106356
101324.9891113817
101324.990055643
101324.9997138001
101325.0187345286
101325.0469725109
101325.0824791677
101325.1217224525
101325.1618537795
101325.202060199
101325.2422354869
101325.2823820819
101325.3223732058
101325.3621294675
101325.4014049816
101325.4399895169
101325.4774908327
101325.5135419102
101325.547587924
101325.5791001185
101325.6073711938
101325.6317355226
101325.6513682479
101325.6655059826
101325.6732451822
101325.6737627246
101325.6661405235
101325.6497084999
101325.6242305007
101325.5909054323
101325.5526573781
101325.5127932292
101325.4727000635
101325.4326352545
101325.3925842209
101325.352639175
101325.3128809459
101325.2734993895
101325.2347020343
101325.1968205887
101325.1602209554
101325.1254051464
101325.0929171199
101325.0634400395
101325.0376965664
101325.0165400707
101325.0008518793
101324.9916309931
101324.9898805822
101324.996647
101325.0127416913
101325.0383490136
101325.0720288028
101325.1104542866
101325.1502959835
101325.1902968438
101325.2302758391
101325.2702372443
101325.3100735937
101325.349718777
101325.3889534129
101325.4275900676
101325.465271742
101325.5016621968
101325.5362476388
101325.5685322404
101325.5978464622
101325.6235470664
101325.6448291136
101325.6609278618
101325.6709317515
101325.6739845357
101325.6691186502
101325.6555523118
101325.6328137059
101325.6016460836
101325.5645642552
101325.5251082954
101325.4852234548
101325.4453519853
101325.4054843035
101325.3656995398
101325.326063417
101325.2867424769
101325.2479208553
101325.2098975709
101325.1730062246
101325.1377085901
101325.1045120004
101325.0740595166
101325.0470432102
101325.0242888857
101325.0066669919
101324.995174619
101324.9908361473
101324.9947446758
101325.007836524
101325.0305830081
101325.0620732456
101325.0993867177
101325.1388536501
101325.1786476269
101325.2184325723
101325.2582084984
101325.2978856739
101325.3374103608
101325.3765871771
101325.4152496774
101325.4530724179
101325.4897472204
101325.5247975274
101325.5577588567
101325.5879981879
101325.6148976362
101325.6376776003
101325.6555827002
101325.6677068785
101325.6731791175
101325.6710043834
101325.660320847
101325.6404657321
101325.6117569349
101325.5761831504
101325.5372959338
101325.4976368571
101325.4579554682
101325.4182701693
101325.3786488387
101325.3391432334
101325.299898598
101325.2610781194
101325.2229509969
101325.1858216954
101325.1501149971
101325.1163037968
101325.0849921166
101325.0568391574
101325.0326385327
101325.0132400815
101324.9996261772
101324.9928237961
101324.9939495594
101325.0040277808
101325.0237615814
101325.0527366661
101325.0885877125
101325.1275341153
101325.1671084648
101325.2067014862
101325.2462911231
101325.2858046622
101325.3251991761
101325.3643019787
101325.4029654506
101325.4408935297
101325.4778033434
101325.5132531528
101325.5468076996
101325.5778695783
101325.6058474423
101325.6299904441
101325.6495597093
101325.6636638015
101325.6714306945
101325.6718547557
101325.6640220978
101325.6471250164
101325.6211157645
101325.587409021
101325.5493246108
101325.5099360384
101325.470443089
101325.430939392
101325.3914848118
101325.3521177516
101325.3129642322
101325.2741682106
101325.235971501
101325.1986519965
101325.162600001
101325.1282562998
101325.0961866373
101325.0670171105
101325.0415057602
101325.0204763781
101325.0048868575
101324.9957542177
101324.9941996323
101325.0013043785
101325.0179461598
101325.0441412152
101325.0781523623
101325.1163578475
101325.1556772289
101325.1950795115
101325.234482366
101325.2738279635
101325.3130833433
101325.3520965699
101325.3907380574
101325.4287383908
101325.4658387868
101325.5016294725
101325.5357033883
101325.5674970258
101325.5964464752
101325.6218313528
101325.6429338553
101325.6588835398
101325.6688167453
101325.6717307026
101325.6666812126
101325.6527583705
101325.6296192036
101325.598121734
101325.5611435708
101325.5221155014
101325.4828135705
101325.4434907667
101325.4042057433
101325.3649845318
101325.3259356528
101325.2871853142
101325.2489499999
101325.2114829561
101325.1751424662
101325.1403387806
101325.1076009672
101325.077521722
101325.0508224334
101325.0282967324
101325.0108721989
101324.9995463337
101324.9954312564
101324.9996394201
101325.0131720352
101325.0363947518
101325.0681973673
101325.1053656382
101325.1443550218
101325.1835646338
101325.2227806137
101325.2619546847
101325.3010626417
101325.3399720828
101325.378570196
101325.4166125362
101325.453862839
101325.4899415222
101325.5244682256
101325.5569122502
101325.5867370477
101325.6132538479
101325.6357685206
101325.6534359537
101325.6654074928
101325.6706929248
101325.6683346701
101325.6573559879
101325.6371886511
101325.6081962928
101325.5726772464
101325.5341627996
101325.4950665207
101325.4559236246
101325.4168104021
101325.3777414718
101325.3388093385
101325.3001239228
101325.26187792
101325.2243018351
101325.1877237179
101325.1525250947
101325.119199523
101325.0883069665
101325.0605315151
101325.0366345215
101325.0175091164
101325.0041270319
101324.9975810368
101324.998994998
101325.0094507434
101325.0295824398
101325.0588496656
101325.0946243854
101325.13314874
101325.1721550986
101325.2111846893
101325.2501844164
101325.2891376368
101325.3279304253
101325.3664656314
101325.4045221969
101325.4418852625
101325.4782036683
101325.5131227345
101325.5461431973
101325.5767559236
101325.6043038054
101325.6281183558
101325.6473821777
101325.6612666633
101325.6688006129
101325.6690260997
101325.6609269596
101325.6437721973
101325.6175156932
101325.5838254121
101325.5460527763
101325.507201271
101325.4682377963
101325.4292980822
101325.3903866817
101325.3515820853
101325.3129787344
101325.2747472575
101325.2370968103
101325.2003270146
101325.1647921028
101325.130951503
101325.0993332567
101325.0705841668
101325.0454322096
101325.0247334368
101325.0094297504
101325.0005870005
101324.9993257373
101325.0067742301
101325.0237631661
101325.050232854
101325.0842282656
101325.1220768172
101325.1608499388
101325.1996935148
101325.2385170773
101325.2773092062
101325.315974089
101325.3544285511
101325.3924741632
101325.4299158352
101325.4664299509
101325.501685904
101325.5352153005
101325.5665355536
101325.5950216379
101325.6200311321
101325.6407765498
101325.6564520857
101325.666110721
101325.6688028706
101325.6634945829
101325.649342737
101325.6259814018
101325.5944700005
101325.5577400384
101325.519214533
101325.4804337736
101325.4416683476
101325.4029187981
101325.3642509767
101325.3257449553
101325.2875505799
101325.2498571212
101325.2129372425
101325.1771192756
101325.1428298774
101325.1105660789
101325.0809379231
101325.0546393839
101325.0324882444
101325.0153936044
101325.0043894798
101325.0005817324
101325.0051196278
101325.0189698978
101325.0424553274
101325.074293567
101325.1111769115
101325.149649738
101325.1883064126
101325.226952377
101325.2655784331
101325.3041053898
101325.3424633773
101325.3804749517
101325.4179642763
101325.4546335035
101325.4901756
101325.5241515577
101325.5561053193
101325.5854431394
101325.611549562
101325.6336676058
101325.6510168361
101325.662677146
101325.6677142187
101325.6650915988
101325.6538943675
101325.6335187141
101325.6044872169
101325.5691531277
101325.5310972084
101325.4925121017
101325.4539209401
101325.4153361594
101325.3768127856
101325.3384173132
101325.3002805926
101325.2625733255
101325.2255426262
101325.1894916528
101325.1548147876
101325.1219779382
101325.0915540849
101325.0642033739
101325.0407065181
101325.0219403784
101325.0089067664
101325.0026999294
101325.0044631833
101325.0152388008
101325.0356721543
101325.0650435633
101325.1006161387
101325.1386663305
101325.1771007762
101325.2155132626
101325.253896095
101325.2921711023
101325.3302901863
101325.3681046682
101325.4054491556
101325.4420534979
101325.4776214665
101325.511767737
101325.5440640981
101325.5739542591
101325.6008658642
101325.6241027205
101325.642904615
101325.6563625124
101325.6634855288
101325.663212518
101325.654345041
101325.6364740368
101325.609383479
101325.5749957418
101325.5371248361
101325.4981288753
101325.4598826585
101325.422430451
101325.3860889183
101325.3510673629
101325.3174699608
101325.2855113548
101325.2553479529
101325.2273398758
101325.2021500858
101325.1796449186
101325.1604808774
101325.1454054347
101325.1348700735
101325.1292289054
101325.1290465078
101325.134764716
101325.1470456858
101325.1664404914
101325.1933424899
101325.2292415885
101325.2687429032
101325.310751549
101325.3523128738
101325.3940448917
101325.4354846912
101325.4764505006
101325.5173054854
101325.557839872
101325.5975385076
101325.6372079991
101325.675912099
101325.7134883199
101325.7491365239
101325.782264635
101325.8128840249
101325.8402265057
101325.863373377
101325.8804702876
101325.8922145405
101325.8969378582
101325.8940357014
101325.8810327173
101325.8626374898
101325.8340260454
101325.8011539616
101325.7650340427
101325.7286899401
101325.693262572
101325.658459958
101325.6253540226
101325.5938269297
101325.5634006423
101325.5347895697
101325.5092448409
101325.4853615345
101325.4642635981
101325.4455494299
101325.4307640735
101325.4206624636
101325.4150667576
101325.4150131798
101325.4201936251
101325.4330739137
101325.4530298609
101325.4796620329
101325.516106396
101325.5585721656
101325.6032743204
101325.6483339919
101325.6922396172
101325.736809173
101325.7804342592
101325.8242894248
101325.8682333046
101325.9110379784
101325.9526493597
101325.9952684049
101326.0360522297
101326.0748856245
101326.1118388296
101326.1461297825
101326.1777903265
101326.2047377445
101326.2275663838
101326.2423463393
101326.2526031642
101326.2526876997
101326.2473634146
101326.2240391956
)
;

boundaryField
{
    inlet
    {
        type            calculated;
        value           uniform 101325.0000000775;
    }
    outlet
    {
        type            calculated;
        value           uniform 101326.2240391956;
    }
    frontAndBack
    {
        type            empty;
    }
}


// ************************************************************************* //
