/*--------------------------------*- C++ -*----------------------------------*\
| =========                 |                                                 |
| \\      /  F ield         | OpenFOAM: The Open Source CFD Toolbox           |
|  \\    /   O peration     | Version:  v2012                                 |
|   \\  /    A nd           | Website:  www.openfoam.com                      |
|    \\/     M anipulation  |                                                 |
\*---------------------------------------------------------------------------*/
FoamFile
{
    version     2.0;
    format      ascii;
    class       volScalarField;
    location    "0.008";
    object      rho;
}
// * * * * * * * * * * * * * * * * * * * * * * * * * * * * * * * * * * * * * //

dimensions      [1 -3 0 0 0 0 0];


internalField   nonuniform List<scalar> 
1000
(
1.176303649257302
1.176327328425185
1.176273483374375
1.176229964738021
1.176178977611766
1.176132341676662
1.176092826471096
1.176059624628069
1.176030948267258
1.176010734468738
1.176004338424386
1.176003839541155
1.1760059747682
1.17601342348674
1.176028924049202
1.176053129180389
1.176085167445025
1.176123509698422
1.17616684992076
1.176214297454705
1.176265152916643
1.176318681267866
1.176374019350968
1.176430161595266
1.176485982546289
1.176540322139859
1.176592167730236
1.176640936953589
1.176686717104297
1.176729919495251
1.176769348448174
1.17679888777529
1.17681142122659
1.176812901826769
1.176812434019744
1.176810660175677
1.17680528994516
1.176794319908706
1.176775784246407
1.176748607395475
1.176712938629462
1.176670059331239
1.176621803995515
1.17656990184894
1.176515647588925
1.176459970575333
1.176403671973101
1.17634759929067
1.176292656893538
1.176239594435575
1.176188637526305
1.176139423745688
1.176092137324394
1.176050524815973
1.176023568249078
1.176015043241492
1.176014502333626
1.176014734263438
1.176016605621533
1.176021240144891
1.176030568386367
1.17604633247643
1.176069935525199
1.176102010811352
1.176142211874092
1.176189263102376
1.176241305394916
1.17629639471287
1.176352896478907
1.176409603321989
1.176465657333943
1.176520517006732
1.176574064610691
1.176626637449856
1.176678576332547
1.176728765967151
1.176771827069188
1.176797985785427
1.176805531535191
1.176806017010698
1.176805555307057
1.176804121421164
1.176800175798405
1.176792340391262
1.176778973853546
1.176758599274214
1.176730170095868
1.176693372386814
1.1766487704847
1.176597735182791
1.176542179571439
1.176484179451751
1.176425569547972
1.176367624193274
1.17631091415193
1.176255349243386
1.176200398856961
1.176145751917842
1.176093196238228
1.176049801636685
1.176025941972912
1.176020271836893
1.176020108440434
1.176020358514229
1.176021882390862
1.176025534610826
1.176032736994187
1.176044922532213
1.176063488490511
1.176089540510083
1.176123658711262
1.176165692722715
1.17621468364378
1.176268991315977
1.176326608508158
1.17638555702737
1.176444271201674
1.17650190963336
1.176558488822143
1.176614639055601
1.176670702769569
1.176724730165378
1.176769501843505
1.17679452175763
1.176800834246598
1.176801171623667
1.176800807884942
1.176799663959233
1.176796573692241
1.176790444488109
1.176779927625609
1.176763666661408
1.176740448451492
1.176709432728921
1.176670357175999
1.176623673442877
1.176570574850675
1.176512857787879
1.176452572350313
1.176391530962027
1.176330872827868
1.17627089234804
1.176211284351486
1.176152099366224
1.176096070265545
1.176051719572755
1.176029207757021
1.176024453158067
1.176024350839074
1.176024568236818
1.176025812262131
1.1760287799994
1.176034617421503
1.176044529166272
1.176059772382593
1.176081496070003
1.176110573275659
1.176147405902072
1.176191762972439
1.176242730675474
1.176298814448772
1.176358187273626
1.176419067077752
1.176480158702337
1.176540962956742
1.176601638176929
1.176662052803424
1.176719574263159
1.176766070707375
1.176791026744266
1.17679701761792
1.176797327580485
1.176797041640034
1.176796136220496
1.176793663219143
1.176788723524241
1.176780176346432
1.176766814982013
1.176747455576093
1.176721099784873
1.176687103512232
1.17664533205732
1.176596277238485
1.176541072652865
1.176481321744327
1.176418732275883
1.176354686744809
1.176289962133018
1.176224862635359
1.176160220571416
1.176099959636405
1.176053987695235
1.176032096752083
1.176027858029433
1.176027779107861
1.17602796204889
1.176028993370543
1.176031451685037
1.176036293782266
1.17604455065738
1.176057341317552
1.176075763955064
1.176100777170361
1.176133043367424
1.176172772556227
1.176219624340929
1.176272705304741
1.176330679145412
1.17639201749538
1.176455378674693
1.176519945274964
1.17658537216671
1.176650876717911
1.176712916958201
1.176762205294265
1.176787895742648
1.176793858090751
1.176794165303015
1.176793936992892
1.176793211358349
1.176791196270854
1.176787138552029
1.176780060537002
1.176768894592973
1.176752535180644
1.176729955086478
1.176700334168952
1.176663193186911
1.176618522075275
1.176566854002602
1.176509204351692
1.176446843275853
1.176380977819737
1.176312512383742
1.176242175160795
1.176171584039395
1.176106021047916
1.176057108845808
1.176034797583605
1.176030712269835
1.176030632856012
1.176030784395369
1.176031647968203
1.176033713724925
1.176037795962755
1.176044786025998
1.176055677140566
1.176071488938026
1.176093183412843
1.176121543631075
1.176157041421035
1.176199736110167
1.176249230971779
1.176304705264727
1.17636506183544
1.176429204027639
1.176496310849736
1.17656578060022
1.176636325473464
1.176703559694183
1.176756943024871
1.176784669623
1.176791127985402
1.176791480038459
1.176791299866954
1.176790719732425
1.176789062809475
1.176785688659851
1.176779750380694
1.176770303947638
1.176756336303751
1.176736847905707
1.176710947215119
1.176677956664943
1.176637527205416
1.176589725374311
1.176535026391504
1.176474182744612
1.176408019630615
1.176337287530021
1.17626284656794
1.17618681019451
1.176115494776802
1.176062123569065
1.176037749973754
1.176033227635758
1.17603310673731
1.176033223638951
1.176033939402128
1.176035677480697
1.17603914573886
1.176045123710787
1.176054495296964
1.176068195390478
1.176087151206055
1.176112190216011
1.176143934719946
1.176182713392024
1.176228506273348
1.176280937193689
1.176339353777796
1.176403016270869
1.176471290243106
1.176543551403042
1.176618290667025
1.176690681812139
1.17674930996379
1.176780808300766
1.176788614976162
1.176789110494953
1.176788973297414
1.17678852256853
1.176787165905514
1.176784351116726
1.176779334140739
1.176771276085734
1.176759254886217
1.176742323458025
1.17671957602346
1.176690227617007
1.176653708003265
1.176609742320754
1.176558366917666
1.176499859731214
1.176434625044237
1.176363130319709
1.176286138993011
1.176205868895158
1.176129005356338
1.176069784967247
1.176041351884685
1.176035574337574
1.17603534275368
1.176035422678891
1.176035999965592
1.176037445672477
1.176040389304494
1.176045521642648
1.176053635877738
1.176065587463185
1.17608225366062
1.176104464529139
1.176132922591745
1.17616813207514
1.176210345210979
1.176259535992359
1.176315438788232
1.176377671913188
1.176445859108226
1.176519504380728
1.176597154933906
1.176674068493085
1.176738660968545
1.176775776053805
1.176786115239827
1.176786943608804
1.17678684521987
1.176786512791885
1.176785418736477
1.176783082318876
1.176778839069133
1.176771937004405
1.176761535786073
1.176746747902851
1.176726682949513
1.176700505114373
1.176667506791671
1.176627175795206
1.176579218108345
1.17652352699162
1.176460130405941
1.176389184825367
1.176311219906314
1.176228224964357
1.176146563939726
1.176080609198919
1.176046067121674
1.176037910879494
1.176037430706314
1.176037475432793
1.176037924347952
1.176039102105886
1.176041581185217
1.176045981131448
1.176053021803353
1.176063489499349
1.176078209020735
1.176097992151091
1.176123578609375
1.176155582310872
1.17619444340788
1.176240394822032
1.176293477451104
1.176353618957974
1.17642070275387
1.176494433908859
1.176573608321568
1.176654002644709
1.176724645336818
1.176768972508388
1.176783379027855
1.176784902184704
1.176784843648785
1.176784617700148
1.176783754895419
1.176781837339491
1.17677826168839
1.176772347269801
1.176763323983441
1.176750362105158
1.176732600258366
1.17670918626842
1.176679333478204
1.176642373146297
1.176597776666709
1.176545148339919
1.176484212786378
1.176414839160693
1.176337266960969
1.176253057338639
1.176167752329649
1.176094928669546
1.176052489788234
1.176040441978251
1.176039427153593
1.176039438242186
1.176039773328891
1.176040706768536
1.176042768566164
1.176046520011287
1.176052621926219
1.176061802335631
1.176074836890056
1.176092510252324
1.176115574023318
1.176144706875039
1.176180472934098
1.176223287544102
1.176273420903576
1.17633104717098
1.176396277547072
1.17646903466155
1.17654845464449
1.17663108355512
1.176707199842152
1.176759757859719
1.176780045783035
1.176782913038744
1.176782928752564
1.176782791572202
1.176782129510409
1.176780580837744
1.176777589679443
1.176772534556734
1.176764704818388
1.176753323340045
1.176737562981685
1.176716575793632
1.17668953539916
1.176655675557868
1.176614309053679
1.176564834619231
1.176506747255376
1.176439673656562
1.176363563618899
1.176279480054447
1.176191893703505
1.176112831255534
1.176061298598451
1.176043486984045
1.176041376414552
1.176041344789909
1.176041582546031
1.176042297914062
1.176043985502945
1.176047156900482
1.1760524253166
1.176060469804103
1.17607202200528
1.176087836900096
1.17610866362914
1.176135215732662
1.176168135150858
1.176207960926951
1.176255128353885
1.17630999816377
1.176372866066364
1.176443855828371
1.176522456888148
1.176606056934892
1.176686556218389
1.176747570116249
1.176775587337405
1.176780885615963
1.176781077647364
1.176781006111014
1.176780515379049
1.1767792897752
1.176776812712215
1.176772513406849
1.176765731514485
1.176755736773567
1.176741737457643
1.176722901858163
1.176698389554665
1.176667378071436
1.176629078167689
1.176582748976403
1.176527719195327
1.176463422303762
1.176389550896733
1.176306688590802
1.176218195898363
1.176134109890757
1.176073128055369
1.176047533151563
1.176043341035197
1.176043216225548
1.176043371594963
1.176043896998465
1.176045252790136
1.176047904679191
1.176052427092507
1.176059457390282
1.176069688249612
1.176083845360323
1.176102667543381
1.176126883659453
1.176157181420729
1.176194181060878
1.176238433479593
1.176290435330307
1.176350623917545
1.176419293233454
1.176496252929824
1.17657968098337
1.176663196043274
1.176732066457102
1.176769335011602
1.176778645104738
1.176779273805192
1.176779247735645
1.176778896827352
1.176777951892265
1.176775926191175
1.176772295008314
1.17676644126171
1.176757676338597
1.176745243428088
1.176728333894515
1.176706109515455
1.176677719564597
1.176642313437586
1.176599060094304
1.176547172051942
1.176485935046599
1.176414830044718
1.176334026199436
1.176245868687085
1.176158289700629
1.176088402265689
1.176053237754816
1.176045474111802
1.176045051180274
1.176045150702163
1.176045515224392
1.176046580385404
1.176048769023237
1.176052622083209
1.176058740444786
1.176067782192292
1.176080445247921
1.176097453888798
1.176119539633951
1.17614741440244
1.176181749991918
1.17622317625581
1.176272285567555
1.176329619708729
1.17639560910399
1.176470330676579
1.176552637042748
1.176637754605946
1.176713225297247
1.176760570962374
1.176775867055134
1.176777492421363
1.17677750994833
1.176777268790444
1.176776562956178
1.176774931214419
1.176771891157745
1.176766863546612
1.176759197400395
1.17674816973053
1.176732998640791
1.176712858075532
1.176686887775922
1.176654204461584
1.176613922688801
1.176565176622993
1.176507142953126
1.17643913800723
1.176360996055861
1.176274204382066
1.176184718338004
1.176107221124241
1.176061363999573
1.176048045489185
1.176046864070332
1.176046920831829
1.176047155210313
1.17604797098245
1.176049749188393
1.176053002471541
1.176058298144236
1.176066263175999
1.176077569503739
1.176092924523695
1.176113054244126
1.176138680672523
1.176170506969633
1.176209215257812
1.176255462941632
1.176309866687145
1.176372962525596
1.176445038286958
1.176525485888277
1.176610913919998
1.176691347101918
1.176748683137019
1.176772033404943
1.176775683992106
1.176775784635387
1.176775630968141
1.176775124988676
1.176773833218121
1.176771315077603
1.176767024211378
1.176760344256115
1.176750584939015
1.176736992856109
1.176718760077444
1.176695029345404
1.176664904746784
1.176627471665701
1.176581813702291
1.176527030074754
1.176462314951025
1.176387244248701
1.176302617747809
1.176212680396149
1.176129339468421
1.176072610941927
1.176051515468242
1.176048697787441
1.176048681413896
1.176048813473217
1.176049421206396
1.176050839804248
1.176053557670247
1.176058110819843
1.176065097697971
1.176075165797144
1.176089004259565
1.176107328337613
1.176130861082049
1.17616032330338
1.176196430035764
1.176239880965303
1.176291345335311
1.176351438978889
1.176420609083235
1.176498658658587
1.176583315226947
1.176666971766936
1.176733333073771
1.176766456915786
1.176773691752713
1.176774080724129
1.176773984474445
1.176773642438581
1.176772641031903
1.176770581455577
1.176766947221617
1.176761154392207
1.17675254432127
1.17674039270231
1.176723913208593
1.176702260075651
1.176674538642135
1.176639822541578
1.176597165024264
1.17654561313368
1.176484274514025
1.176412532042355
1.176330654389572
1.176241492046816
1.176154233253865
1.176087435365822
1.176056557904705
1.176050656554161
1.17605042439091
1.17605048845718
1.176050924850651
1.1760520319775
1.176054274922676
1.176058158953332
1.176064256327823
1.176073191175042
1.176085633396887
1.176102284184449
1.176123861954283
1.176151095719896
1.176184719324826
1.176225458342447
1.176274018432504
1.176331074430313
1.176397189398284
1.176472468763234
1.176555507060048
1.176640762189458
1.176714540375956
1.176758369728327
1.176771225648735
1.176772388948281
1.176772334944365
1.176772122149554
1.176771364630725
1.176769705785051
1.176766655262252
1.176761660717374
1.176754094096155
1.176743260056745
1.176728395906662
1.176708673222872
1.176683208070567
1.176651074151699
1.176611309170182
1.176562928078533
1.176504980395596
1.176436708047166
1.176357980275893
1.176270559368608
1.176181220483171
1.176105937894956
1.176063964148117
1.176052972353578
1.176052154158006
1.176052172843422
1.176052475083581
1.176053315116373
1.176055139799722
1.176058422947429
1.176063712033989
1.176071608563607
1.17608276245874
1.176097858830496
1.176117607871934
1.176142740040116
1.17617399771197
1.176212120912178
1.176257840201566
1.17631187279585
1.176374862862709
1.176447132504637
1.17652792724371
1.176613393320307
1.176692657351578
1.176747116877856
1.17676779768753
1.176770662339827
1.176770688093246
1.176770573307532
1.176770015418639
1.176768703496649
1.17676616987488
1.176761892944243
1.176755274263759
1.176745646947756
1.176732273140901
1.176714345841952
1.176690998154047
1.176661311791373
1.176624319982854
1.176579021401489
1.176524429160277
1.176459684158013
1.176384361569189
1.176299402442306
1.176209582252752
1.176127843430181
1.17607447774258
1.176056079709402
1.176053894821072
1.176053862328407
1.176054061382673
1.176054677501212
1.176056137414551
1.176058883379243
1.176063439605576
1.176070385048896
1.176080349103378
1.176093999679132
1.176112036414772
1.17613518616975
1.176164192389973
1.176199801789703
1.176242761575495
1.176293818032156
1.176353669669752
1.176422790964704
1.176500905146121
1.176585474581784
1.176668272197581
1.176732331242998
1.176762711994907
1.176768786734867
1.176769052723722
1.176769000974849
1.17676860470324
1.176767590350851
1.17676551168262
1.176761878329335
1.176756120162812
1.176747598148084
1.176735600081998
1.176719343170962
1.176697981534939
1.176670610226294
1.17663626651161
1.17659394508634
1.176542638716235
1.176481417247721
1.176409643653046
1.17632765540193
1.176238649423609
1.176152589478109
1.176088605511185
1.176060629877373
1.176055726247425
1.176055554124211
1.176055675536665
1.176056106531442
1.176057252556135
1.176059521170902
1.176063414939948
1.176069490298208
1.17607835569104
1.176090661237985
1.176107094313384
1.176128374237117
1.17615524023516
1.176188440586917
1.176228732938267
1.176276881931954
1.176333620754281
1.176399529895127
1.176474676807436
1.176557513295699
1.176642078138553
1.176714018041041
1.176755190415136
1.17676650476138
1.176767422941441
1.17676741256903
1.176767139548281
1.176766378338584
1.176764700326972
1.176761647526591
1.176756675592081
1.176749169309356
1.176738438406754
1.176723722419619
1.176704198028352
1.176678982784655
1.176647138306488
1.176607681169378
1.17655960371765
1.176501925030486
1.176433850291939
1.176355277414277
1.176268152270732
1.176179735372672
1.176106724183924
1.176067499695862
1.176057827399005
1.176056901404241
1.176056601425794
1.176056728694099
1.176057408541235
1.176059065537775
1.176062190597268
1.176067306426519
1.176074984204596
1.176085864347583
1.176100666549903
1.176120173560361
1.176145180448434
1.176176430578211
1.176214578790714
1.176260198159015
1.176313808240691
1.176375835503415
1.176446510539226
1.176525103995587
1.176608135016892
1.176685009068329
1.176736170691185
1.17675717502809
1.176763154108478
1.176771434811724
1.176779786718938
1.176789232121055
1.17679891449386
1.176807895003383
1.176815353986383
1.176820186238011
1.176821804781264
1.176820346613103
1.176814886070312
1.176803295610628
1.176783679423786
1.176754123594872
1.17671265833643
1.176657241369695
1.176586000242459
1.176498103106516
1.176396708681531
1.176289665201281
1.176196119236405
1.176136252147588
1.176104759939776
1.17608853318248
1.176081436311655
1.176080390442113
1.176082109646836
1.176084926743228
1.176088317543065
1.176093030995475
1.176099958774705
1.176109748159717
1.176123087747972
1.176140570303056
1.176162993817285
1.176191322841363
1.176226506748943
1.176269308597879
1.176320363957492
1.176380293147721
1.176449328752203
1.176526192655584
1.176606710009888
1.176683641003754
1.176745148591724
1.176780280943797
1.176790429358049
1.176796598595498
1.176803138062661
1.176810595883588
1.176818426805458
1.176825825599232
1.176832099705061
1.176836590800107
1.176838253755098
1.176836557577776
1.176831095647055
1.176820345700252
1.176803176013832
1.176778077404509
1.176742905388466
1.176695246675225
1.176632926527209
1.176554302681085
1.176460260170597
1.176357007482633
1.176257540362672
1.176183754135351
1.176142370428111
1.176120848190413
1.176109905879742
1.176106444426681
1.176107678750035
1.176110828676593
1.176114848846544
1.176120021250966
1.176126894183626
1.176135889661534
1.176147776356769
1.176163306680264
1.176183601114277
1.176210065839541
1.176243950469642
1.176285701017305
1.176334886886403
1.176390931151431
1.176453790482743
1.176525117628675
1.176596899555328
1.176705892477899
)
;

boundaryField
{
    inlet
    {
        type            calculated;
        value           uniform 1.176411716172193;
    }
    outlet
    {
        type            calculated;
        value           uniform 1.176705374242771;
    }
    frontAndBack
    {
        type            empty;
    }
}


// ************************************************************************* //
