/*--------------------------------*- C++ -*----------------------------------*\
| =========                 |                                                 |
| \\      /  F ield         | OpenFOAM: The Open Source CFD Toolbox           |
|  \\    /   O peration     | Version:  v2012                                 |
|   \\  /    A nd           | Website:  www.openfoam.com                      |
|    \\/     M anipulation  |                                                 |
\*---------------------------------------------------------------------------*/
FoamFile
{
    version     2.0;
    format      ascii;
    class       volScalarField;
    location    "0.008";
    object      T;
}
// * * * * * * * * * * * * * * * * * * * * * * * * * * * * * * * * * * * * * //

dimensions      [0 0 0 1 0 0 0];


internalField   nonuniform List<scalar> 
1000
(
299.9878575712632
299.989647430799
299.983314751691
299.9786462386585
299.9741719794051
299.9702952722031
299.9667701550273
299.963598190219
299.9608085696701
299.9589076415126
299.9583983595057
299.9585140906073
299.9588994835636
299.9597058264821
299.9612608088901
299.9636840793073
299.966898059039
299.9707486120738
299.9751060300129
299.9798850627598
299.9850206681082
299.990442852732
299.996065944785
300.0017870237577
300.007488835655
300.0130493510625
300.0183611795161
300.0233609593701
300.0280541087331
300.0324800968698
300.0365155427651
300.0395357083438
300.0408146126416
300.0409631747608
300.0409096324693
300.0407191246824
300.0401630785078
300.0390381914665
300.0371432376937
300.0343683845297
300.0307287760774
300.0263547262185
300.0214328139942
300.0161388934235
300.0106045856165
300.0049243862432
299.9991798868732
299.9934575767502
299.9878498790644
299.9824335110699
299.9772317311416
299.9722077491092
299.9673805273203
299.9631326086898
299.9603808762394
299.9595107155953
299.959455640963
299.9594796201283
299.9596710020551
299.9601442951661
299.9610965944747
299.9627057557182
299.9651149974416
299.9683889477625
299.9724922258739
299.9772946056739
299.9826063039349
299.9882288750654
299.9939954691841
299.9997828483417
300.0055034496684
300.01110200877
300.0165665145485
300.0219313934811
300.0272314278961
300.0323528172136
300.0367466871386
300.0394158119531
300.0401857381506
300.0402352717873
300.0401881627241
300.0400418610986
300.0396392761469
300.0388397931721
300.0374759289617
300.0353969711309
300.0324961074902
300.0287412686746
300.0241899941863
300.018982114458
300.0133128076883
300.0073938746355
300.0014125361199
299.9954988424595
299.9897110523018
299.9840399721973
299.9784314539133
299.9728537499058
299.9674893448317
299.9630599010476
299.9606244106133
299.9600456249561
299.9600289488998
299.9600544800979
299.9602100358106
299.9605828430789
299.9613180348275
299.9625618795124
299.9644569920165
299.967116209714
299.9705987158513
299.9748891196053
299.9798894980727
299.985432398297
299.9913129167233
299.9973291347691
300.0033212569148
300.0092034197768
300.0149773167672
300.0207072746223
300.0264282384853
300.0319412488204
300.0365096710955
300.0390626048787
300.0397067028372
300.0397411300219
300.0397040190068
300.0395873015461
300.0392719869263
300.0386465907342
300.0375734912269
300.0359142731098
300.0335451343825
300.0303803090719
300.0263929922846
300.0216292237041
300.0162107235342
300.0103207610483
300.0041685144261
299.9979389298005
299.9917482672685
299.9856265777767
299.9795427194086
299.9735018508311
299.967782921243
299.9632558875035
299.9609579806609
299.9604726506021
299.9604622090431
299.9604844046594
299.9606113939505
299.96091433157
299.9615101933978
299.9625219401323
299.964077887787
299.9662953056745
299.9692632853159
299.9730228156505
299.9775502771915
299.9827523502346
299.988476444696
299.9945360528374
300.0007492740837
300.0069839203609
300.0131890476994
300.0193808157459
300.0255457989962
300.0314153682253
300.0361597925702
300.038706213431
300.0393174981523
300.0393491296962
300.0393199585337
300.0392275790977
300.0389752489714
300.0384712267302
300.0375991083919
300.0362357601874
300.0342603736302
300.0315710601585
300.0281020667936
300.023839607953
300.0188338213929
300.0132003340219
300.0071027278372
300.0007152469706
299.9941789597007
299.9875731517823
299.9809288634143
299.974331041964
299.968180185187
299.9634876714409
299.9612531448207
299.9608204762936
299.9608124249287
299.9608311061936
299.9609363860846
299.9611873257999
299.9616815910778
299.9625244188301
299.9638300262984
299.9657105006498
299.9682636721699
299.9715571271673
299.9756122647379
299.9803942960606
299.9858119843539
299.9917288950303
299.9979890035291
300.0044553545839
300.0110445115415
300.0177212421775
300.0244056728451
300.0307363743967
300.0357656925136
300.0383870552549
300.0389954324419
300.0390267853788
300.0390034967358
300.03892946429
300.0387238595914
300.0383098323508
300.0375876239839
300.0364482925881
300.0347790240018
300.0324749890912
300.029452478327
300.025662556412
300.0211041529703
300.0158316243742
300.0099485349005
300.0035844550358
299.9968625268484
299.9898750181383
299.9826962229069
299.9754912522758
299.9687992414806
299.9638066149013
299.9615291874047
299.9611121800706
299.9611040797091
299.961119557528
299.9612077159313
299.9614185861453
299.9618352894638
299.9625488084189
299.96366052244
299.9652745023498
299.9674889292609
299.9703837117357
299.9740069795949
299.9783647489144
299.983416480333
299.9890783555118
299.9952383492662
300.0017844966116
300.0086329762965
300.0157223541381
300.0229211887757
300.0297819351453
300.0352291200194
300.0380582491446
300.0387172389882
300.0387531679425
300.0387347917266
300.0386756064137
300.0385065479397
300.0381622697834
300.037556356396
300.0365924795162
300.0351672638214
300.0331787073553
300.0305358207626
300.0271694381318
300.0230439048125
300.0181659641153
300.0125840571943
300.0063749186754
299.999622706667
299.9924039599161
299.9848064143607
299.9770457375401
299.9697666210744
299.9643188665718
299.9618309283944
299.9613693119734
299.9613569769987
299.9613689188296
299.9614419896117
299.9616194116973
299.961973442433
299.9625836517474
299.9635402605991
299.9649386920493
299.9668735803065
299.969429371256
299.972669559312
299.9766276585386
299.9813015895093
299.9866529094045
299.9926149829701
299.9991122592297
300.0060799408363
300.0134542696235
300.021081203281
300.0284682321852
300.0344506230579
300.0376646144388
300.038461180381
300.0385117473242
300.0384977551093
300.0384517731702
300.0383133513794
300.0380261473744
300.0375142395981
300.0366920279194
300.0354654230265
300.033737778492
300.0314166561702
300.0284219367416
300.024695401603
300.0202089618178
300.0149662758939
300.0089956485901
300.0023382739774
299.9950417920172
299.9871840498782
299.9789913437828
299.9711459983965
299.9651012315519
299.9621989248984
299.9616091813159
299.9615855471502
299.9615937130023
299.9616526476933
299.9618002246989
299.9621007027284
299.9626245926056
299.9634528567815
299.9646728108883
299.9663739925801
299.9686411153684
299.9715458669775
299.9751396855613
299.9794482786359
299.9844689459691
299.9901745237403
299.9965259997689
300.0034849139461
300.0110005861688
300.0189246987856
300.0267732844551
300.0333643176704
300.037151437092
300.0382064091774
300.0382909374076
300.0382809035223
300.0382469910557
300.0381353634991
300.0378969692429
300.0374640082558
300.0367597489022
300.0356984421171
300.0341895221279
300.0321421225394
300.0294709401621
300.0261037444334
300.0219882347121
300.0170943616604
300.0114111758213
300.0049414638366
299.997701118872
299.9897441139004
299.9812734000449
299.9729384675803
299.9662063584541
299.9626804866791
299.9618479348094
299.9617989245054
299.9618034955301
299.961849325127
299.961969549776
299.9622226068819
299.9626717362206
299.9633904154076
299.9644589020866
299.9659613808359
299.9679807024993
299.9705923553255
299.9738589781701
299.9778254643163
299.9825155455435
299.9879333454208
299.9940714225446
300.0009178123533
300.008442343763
300.016522062776
300.0247259317564
300.0319343950339
300.0364574390156
300.0379274254291
300.0380828454704
300.0380768764549
300.0380538270707
300.0379657941612
300.037770137521
300.0374052943719
300.0368018098592
300.0358811026308
300.0345585048487
300.0327461145741
300.0303569624928
300.0273107562167
300.0235392251384
300.0189883864452
300.0136178067287
300.0073993173954
300.000319486199
299.992402664449
299.9838080873686
299.9751013263316
299.9676681659631
299.9633362523319
299.9621064653707
299.9620028789108
299.9620040146235
299.962038223625
299.9621335081711
299.9623439697024
299.9627269017582
299.9633497562537
299.9642868433106
299.9656173318376
299.9674213065354
299.9697754715735
299.9727490795982
299.9763996824477
299.9807696356837
299.9858864698091
299.99176790253
299.9984252155204
300.0058504353906
300.0139553183139
300.022387320778
300.0301543997258
300.0355173394702
300.0375874445355
300.0378800095673
300.0378816154837
300.0378676221439
300.0378000711069
300.0376420527172
300.0373368478382
300.0368210418894
300.0360221201212
300.0348607829608
300.0332526237926
300.0311111072612
300.0283518918635
300.0248967627849
300.0206755572005
300.0156268690361
300.0096991005476
300.0028540765867
299.9950865792298
299.9865049826176
299.9775654908671
299.9694956253034
299.9642355105698
299.9624173816472
299.9622019455699
299.9621987200431
299.9622229922679
299.9622960162296
299.9624682791877
299.9627920016416
299.9633297758545
299.9641509137402
299.9653300931504
299.9669443706688
299.9690702018618
299.9717804018067
299.9751404688633
299.9792053888022
299.9840195467459
299.9896197057378
299.9960359796582
300.0032809210062
300.0113023359336
300.0198335515194
300.0280479816642
300.0342738041328
300.0371325883396
300.0376732043282
300.0376928001337
300.0376855033372
300.0376354333508
300.0375103788398
300.0372576294486
300.0368189437011
300.03612694045
300.0351071027439
300.0336786389802
300.0317566733214
300.0292554344882
300.0260909735445
300.0221827216948
300.0174550325987
300.0118393424357
300.0052777617431
299.9977388248215
299.9892819845063
299.9802501123495
299.9716676051822
299.9654430394021
299.9628304361848
299.962402524096
299.9623897857371
299.9624056470411
299.9624592796084
299.9625976735392
299.9628683662638
299.9633299915975
299.9640476061503
299.9650919112566
299.9665369751262
299.968458202047
299.9709299737366
299.9740224641473
299.9777989502515
299.9823156211494
299.9876231166225
299.9937660050121
300.0007742131292
300.0086282242219
300.0171420032779
300.0256642866437
300.032691860895
300.0364946426919
300.03744460799
300.037508759142
300.0375061006346
300.0374702970055
300.0373738802903
300.0371671855586
300.0367966721418
300.0361993736572
300.0353050235544
300.0340363941154
300.0323109656916
300.0300431940069
300.0271462510742
300.0235333109794
300.0191195309778
300.0138244969269
300.0075752473855
300.0003187229892
299.9920720771797
299.983074542501
299.974135637849
299.9670021367115
299.9634127348028
299.9626202564606
299.9625770865329
299.9625872463859
299.9626244563784
299.962733183633
299.9629565893673
299.963349890008
299.9639744187849
299.964897346659
299.9661899086143
299.9679260261204
299.9701803546643
299.9730255421971
299.9765301326689
299.9807583781428
299.985770692586
299.9916223117781
299.998357090144
300.0059827885647
300.0143822141899
300.0230681451396
300.0307693110569
300.0356003726283
300.0371611282177
300.0373269748442
300.0373287641784
300.0373041584177
300.0372321383037
300.0370656413356
300.0367554440124
300.0362424415765
300.0354602078892
300.0343349673294
300.032786930227
300.0307317960828
300.0280817673899
300.0247466880543
300.0206361688418
300.0156618059071
300.0097395157927
300.0027994430711
299.9948245675149
299.9859665591346
299.9768331402979
299.9689230011294
299.9642421923103
299.9628826991433
299.9627621057928
299.9627679003855
299.9627918254726
299.9628750959712
299.9630566064611
299.9633886845936
299.9639292375476
299.9647422607937
299.9658963378129
299.96746366842
299.9695183476744
299.9721340560588
299.975382542276
299.9793333975497
299.9840536779502
299.9896062670766
299.9960458022438
300.0034015721226
300.0116114194952
300.0203291558215
300.0285368137279
300.0343873322276
300.0367699143837
300.0371424064109
300.0371526762444
300.0371369971909
300.0370853692987
300.0369535615345
300.0366966185052
300.0362587910618
300.0355771857375
300.0345813659108
300.033194450473
300.0313339903822
300.0289124971346
300.0258385292788
300.0220187254982
300.0173595277116
300.0117689532161
300.0051646867471
299.9975033474223
299.9888664388644
299.979687093421
299.971180605586
299.9653901698608
299.9632368465195
299.9629492305767
299.962947559609
299.9629610401196
299.9630230747894
299.9631678780353
299.9634453033001
299.9639100633794
299.9646232425454
299.965650929895
299.9670634631931
299.968933841388
299.9713358538951
299.9743430541146
299.978028396442
299.9824632570463
299.9877158908721
299.9938490852435
300.0009083972845
300.008873625184
300.0175127575891
300.026049457673
300.0328209859873
300.036200850523
300.036939065682
300.0369787552199
300.0369689345578
300.0369340346997
300.0368318545102
300.0366217016804
300.0362508748519
300.0356597895039
300.0347812367424
300.0335413055523
300.0318597528861
300.0296502653825
300.0268215326323
300.0232789986059
300.01892601364
300.0136652772525
300.0074056516765
300.0000840625373
299.9917278129349
299.9826277027833
299.9737214552218
299.9669032928039
299.9637514889255
299.9631491059184
299.9631254080081
299.9631319478613
299.9631764928814
299.9632895025968
299.9635184502503
299.963914910199
299.964537294084
299.9654493068026
299.9667193232024
299.9684189084754
299.9706213811589
299.9734011347915
299.9768330472352
299.9809911412698
299.9859473937579
299.9917706195392
299.9985182074917
300.0062008229102
300.0146749301862
300.0233748833458
300.0309033297892
300.0353755908233
300.0366873621328
300.036806061097
300.0368005508745
300.0367788381799
300.0367015433812
300.0365322796951
300.0362210128883
300.0357113823502
300.0349393011936
300.0338338147583
300.0323170929803
300.030304594068
300.0277061050724
300.024427080891
300.0203692905426
300.0154321650699
300.0095186424296
300.0025512716251
299.9945165973403
299.9855943523185
299.9764759334923
299.9687918265821
299.9645074070223
299.9633854161547
299.96330189875
299.9633038062082
299.9633346574186
299.9634204034591
299.9636066570434
299.9639417820669
299.9644816606504
299.9652876888045
299.9664262028493
299.9679671279484
299.9699829451234
299.9725481978055
299.9757386381569
299.9796297680774
299.9842961108951
299.9898108125763
299.9962395456785
300.0036150939717
300.0118603569267
300.0205819628765
300.0286703056412
300.0342273045127
300.0363375065987
300.0366298052366
300.0366324330944
300.0366207208192
300.0365637955387
300.0364299307784
300.0361714069384
300.0357349998107
300.0350596445713
300.0340772908787
300.0327126441739
300.0308833503008
300.0285009374342
300.0254716815998
300.0216968998621
300.0170743679628
300.0115033159288
300.0048959909428
299.997208933895
299.9885380633349
299.9793706591077
299.971027682263
299.9655804977878
299.9637025185992
299.9634794956271
299.9634761790073
299.9634964974425
299.9635593874405
299.9637084071833
299.9639886994633
299.9644537719374
299.9651627193746
299.966179783407
299.9675731345554
299.9694141781605
299.9717770927064
299.9747377424635
299.9783723159388
299.9827570401023
299.9879680333418
299.9940765206624
300.0011308428989
300.0091026544088
300.0177328841361
300.0261819258025
300.0327185269994
300.0358184969422
300.0364383414359
300.03646548206
300.0364602017947
300.0364197673886
300.0363162656764
300.0361041639112
300.0357334256668
300.0351458754025
300.0342763051839
300.0330520389337
300.0313931941434
300.029213445792
300.0264204341134
300.0229158924555
300.0185971962128
300.0133615059436
300.0071138260287
299.9997890495239
299.9914214993051
299.9823373332433
299.9735534357998
299.967022490494
299.9641668924289
299.9636663533582
299.9636487839095
299.9636611770261
299.9637051705452
299.9638221501934
299.9640537171967
299.9644511698673
299.9650713045574
299.9659762251672
299.9672322872273
299.968909645657
299.9710817113747
299.9738239206284
299.9772126251845
299.9813251219022
299.9862394081542
299.9920302542092
299.9987568270449
300.0064259157176
300.0148794184756
300.0235089216899
300.0308497825902
300.0350509332812
300.0362054102259
300.0362990981922
300.0362980398195
300.0362701815222
300.0361925097138
300.0360212897671
300.0357097895688
300.0352024646432
300.0344365381644
300.0333415727194
300.0318399655077
300.0298476954932
300.0272747015139
300.0240252056057
300.0199988210496
300.0150926720888
300.0092065905039
300.0022593755902
299.9942404974594
299.9853484260856
299.9763240995816
299.9688718300941
299.9648680414436
299.9638807410445
299.9637862203616
299.9637556002727
299.9637685910794
299.9638379859407
299.964007122497
299.9643261100139
299.9648483024226
299.9656320003107
299.9667425696977
299.9682534658699
299.9702445757956
299.9727970377238
299.9759867040067
299.9798803814225
299.9845365192746
299.9900080916531
299.9963385567231
300.0035513658532
300.0115719905949
300.0200451228665
300.0278896087204
300.0331101112569
300.0352533414876
300.0358634315757
300.03670837191
300.0375605741655
300.0385243482997
300.0395122968849
300.0404286257775
300.0411897021299
300.0416827593939
300.0418479080266
300.041699127744
300.0411419670032
300.0399593356291
300.0379577810869
300.0349419878855
300.0307109139595
300.0250560819898
300.0177862917292
300.0088164748527
299.9984687732562
299.9875439933292
299.9779962383629
299.9718856534981
299.9686712051234
299.9670149027278
299.9662905018491
299.966183744231
299.966359227578
299.9666467769749
299.9669928873361
299.9674740033944
299.9681811376508
299.969180356282
299.9705419414356
299.9723263901013
299.9746151416288
299.97750662757
299.9810977194498
299.9854662597014
299.9906770650597
299.9967933797583
300.0038388577745
300.0116829682475
300.0198995885989
300.0277499072863
300.0340261242072
300.0376109176805
300.0386464133241
300.0392758926231
300.0399431464818
300.0407041035121
300.0415031293193
300.0422580620966
300.0428982363458
300.0433564813489
300.0435261600024
300.0433530948622
300.0427957955166
300.041698935822
300.0399470334558
300.0373860783627
300.0337972089886
300.028934091557
300.0225746940881
300.0145513162978
300.0049541987309
299.9944169279436
299.9842658585094
299.9767355913793
299.9725117169995
299.9703132451603
299.9691927880294
299.9688367306762
299.9689610793724
299.9692816921969
299.9696947774037
299.9702328781723
299.9709585174322
299.9719229588427
299.9732035286034
299.9748414974042
299.9768622184557
299.9792963968194
299.9822311623561
299.9858579783016
299.9904888253538
299.9964582854182
300.0038521727285
300.012434180178
300.0208506556972
300.0326111530713
)
;

boundaryField
{
    inlet
    {
        type            fixedValue;
        value           uniform 300;
    }
    outlet
    {
        type            characteristicVelocityInletOutletTemperature;
        UName           U;
        pName           p;
        TName           T;
        phiName         phi;
        rhoName         rho;
        U               (0 0 0);
        p               101325;
        T               300;
        value           uniform 300.0327432910238;
    }
    frontAndBack
    {
        type            empty;
    }
}


// ************************************************************************* //
