/*--------------------------------*- C++ -*----------------------------------*\
| =========                 |                                                 |
| \\      /  F ield         | OpenFOAM: The Open Source CFD Toolbox           |
|  \\    /   O peration     | Version:  v2012                                 |
|   \\  /    A nd           | Website:  www.openfoam.com                      |
|    \\/     M anipulation  |                                                 |
\*---------------------------------------------------------------------------*/
FoamFile
{
    version     2.0;
    format      ascii;
    class       volVectorField;
    location    "0.008";
    object      U;
}
// * * * * * * * * * * * * * * * * * * * * * * * * * * * * * * * * * * * * * //

dimensions      [0 1 -1 0 0 0 0];


internalField   nonuniform List<vector> 
1000
(
(-0.001010222832447208 0 0)
(-0.03285577332061396 0 0)
(-0.04107216532232492 0 0)
(-0.05634863254354563 0 0)
(-0.0703741770223078 0 0)
(-0.08349609660815675 0 0)
(-0.09470855526538416 0 0)
(-0.1043048361354788 0 0)
(-0.1126771401548906 0 0)
(-0.1185641090478064 0 0)
(-0.1203150860046113 0 0)
(-0.1202413723948375 0 0)
(-0.1195554790740377 0 0)
(-0.1172897180962504 0 0)
(-0.1127410453822245 0 0)
(-0.105634042460813 0 0)
(-0.09622038324374101 0 0)
(-0.08494919988834121 0 0)
(-0.07220792921744582 0 0)
(-0.05825585346099045 0 0)
(-0.04328761676403428 0 0)
(-0.02751318994363761 0 0)
(-0.01119487010124206 0 0)
(0.005363318368563806 0 0)
(0.02183951398765583 0 0)
(0.03790218918289286 0 0)
(0.05323475299085816 0 0)
(0.06763673999506305 0 0)
(0.08114416846664639 0 0)
(0.09391992692574361 0 0)
(0.1056035677151621 0 0)
(0.1143223477556254 0 0)
(0.1179768976525456 0 0)
(0.118393598815835 0 0)
(0.1183335864236722 0 0)
(0.1177427665468492 0 0)
(0.1161711872421829 0 0)
(0.1129260786430785 0 0)
(0.107450952557272 0 0)
(0.09942812903583202 0 0)
(0.0889043162111037 0 0)
(0.0762512225811568 0 0)
(0.06200592959812082 0 0)
(0.04668577818374969 0 0)
(0.03067944253990231 0 0)
(0.01425148333199183 0 0)
(-0.002374488448109988 0 0)
(-0.01893746516524509 0 0)
(-0.03514873276741386 0 0)
(-0.05079691082347763 0 0)
(-0.06585011142398506 0 0)
(-0.08041039072109284 0 0)
(-0.09436922528985262 0 0)
(-0.1066141751245663 0 0)
(-0.1145648867339156 0 0)
(-0.1171299149354656 0 0)
(-0.1173221185602462 0 0)
(-0.1171639305775269 0 0)
(-0.1166674825822625 0 0)
(-0.1152811722914375 0 0)
(-0.1125291301753584 0 0)
(-0.107875766501114 0 0)
(-0.1009074581293927 0 0)
(-0.09143415252719628 0 0)
(-0.07956317382794606 0 0)
(-0.06567513373030467 0 0)
(-0.05031295950677253 0 0)
(-0.03404421301601299 0 0)
(-0.01735893177251233 0 0)
(-0.0006248353900037241 0 0)
(0.01591283727221485 0 0)
(0.03211309416983754 0 0)
(0.04793440996378727 0 0)
(0.06344610411263518 0 0)
(0.07875078662131983 0 0)
(0.09356530776580477 0 0)
(0.106308795411957 0 0)
(0.1140384925018183 0 0)
(0.1162266725912148 0 0)
(0.1163401758946433 0 0)
(0.1162779685357592 0 0)
(0.1158094336989552 0 0)
(0.1146587899577933 0 0)
(0.1123448281759758 0 0)
(0.1083990826932255 0 0)
(0.1023847640388909 0 0)
(0.09399643805335935 0 0)
(0.08313780048531189 0 0)
(0.06997096890243776 0 0)
(0.05490467251401641 0 0)
(0.0385100539128295 0 0)
(0.02139477577501435 0 0)
(0.004089700158716851 0 0)
(-0.01302445732152142 0 0)
(-0.02976224684239949 0 0)
(-0.04615229695481443 0 0)
(-0.06237750439532368 0 0)
(-0.07853354031658269 0 0)
(-0.09405406341944252 0 0)
(-0.106839404359978 0 0)
(-0.1138700797417768 0 0)
(-0.1155724056889455 0 0)
(-0.115653914819404 0 0)
(-0.1155189607720986 0 0)
(-0.1151027968773403 0 0)
(-0.1140144435547605 0 0)
(-0.1118887664601144 0 0)
(-0.1082916561054082 0 0)
(-0.1028106071556793 0 0)
(-0.0951165103941566 0 0)
(-0.08504144374844143 0 0)
(-0.07263334261573672 0 0)
(-0.05817133368480226 0 0)
(-0.04213452355144312 0 0)
(-0.02512071842803906 0 0)
(-0.007722683937823702 0 0)
(0.009602677780711081 0 0)
(0.02662115406166123 0 0)
(0.04333362439003623 0 0)
(0.05990353137852103 0 0)
(0.07643216677504534 0 0)
(0.09237811436934237 0 0)
(0.1056167414748876 0 0)
(0.113009428038222 0 0)
(0.114845135225285 0 0)
(0.1149208611303169 0 0)
(0.1148670932298669 0 0)
(0.1144977912338602 0 0)
(0.1135951482725242 0 0)
(0.1117854084795305 0 0)
(0.1086810029580125 0 0)
(0.1038808589045174 0 0)
(0.09702986182347433 0 0)
(0.08787757911828639 0 0)
(0.07634279024959792 0 0)
(0.06256158008939608 0 0)
(0.04689147512434345 0 0)
(0.0298591000129086 0 0)
(0.01206091265947955 0 0)
(-0.005965053465743548 0 0)
(-0.02386924531829119 0 0)
(-0.04156577704293432 0 0)
(-0.05916508310043346 0 0)
(-0.07665588938137907 0 0)
(-0.09320182377522795 0 0)
(-0.1062764806192221 0 0)
(-0.1129114895358535 0 0)
(-0.1143352761318211 0 0)
(-0.1143930222995164 0 0)
(-0.1142824048481734 0 0)
(-0.1139399503722172 0 0)
(-0.1130564185240156 0 0)
(-0.1113334178981444 0 0)
(-0.1084075070507481 0 0)
(-0.1039074039484145 0 0)
(-0.09749166306195974 0 0)
(-0.08890517696095809 0 0)
(-0.07803219602537873 0 0)
(-0.06493766222941569 0 0)
(-0.04988723955320649 0 0)
(-0.03332667264180003 0 0)
(-0.01580247421027456 0 0)
(0.002163992054964715 0 0)
(0.02020172083304154 0 0)
(0.0381591326079728 0 0)
(0.0560647176980852 0 0)
(0.07388138915876982 0 0)
(0.09085972490435375 0 0)
(0.1046026867889259 0 0)
(0.1119735892849277 0 0)
(0.1137192772494976 0 0)
(0.1137927497262454 0 0)
(0.1137515730495384 0 0)
(0.1134582660090887 0 0)
(0.1127361501313355 0 0)
(0.1112776326369844 0 0)
(0.1087547220888964 0 0)
(0.1048104508944861 0 0)
(0.09909799692923695 0 0)
(0.09132089741992283 0 0)
(0.08128575046488741 0 0)
(0.06895489720832861 0 0)
(0.05447806621326276 0 0)
(0.0381869891786973 0 0)
(0.02054748550528196 0 0)
(0.002065993937097511 0 0)
(-0.01683826689364653 0 0)
(-0.03593692408443017 0 0)
(-0.05515724111596922 0 0)
(-0.074256179361989 0 0)
(-0.0920508580500394 0 0)
(-0.1056080159547962 0 0)
(-0.1120617910538309 0 0)
(-0.1133292208914537 0 0)
(-0.1133755667171809 0 0)
(-0.1132835753135759 0 0)
(-0.1129992463636075 0 0)
(-0.1122674974288955 0 0)
(-0.1108382488369001 0 0)
(-0.1084008471532875 0 0)
(-0.1046247864931029 0 0)
(-0.09918395615245981 0 0)
(-0.09179755366685932 0 0)
(-0.08227244144110281 0 0)
(-0.07054381899501672 0 0)
(-0.05670875362517672 0 0)
(-0.04103502069633608 0 0)
(-0.02392312435002455 0 0)
(-0.005819917095738134 0 0)
(0.01288788589511313 0 0)
(0.03195446132755152 0 0)
(0.05126262227290873 0 0)
(0.07058439932381469 0 0)
(0.08889751386428511 0 0)
(0.1034612654008082 0 0)
(0.1110464936344007 0 0)
(0.1127870650537512 0 0)
(0.1128640595516874 0 0)
(0.1128328878017426 0 0)
(0.1125962153811916 0 0)
(0.112008245628947 0 0)
(0.1108100810786123 0 0)
(0.1087208916609294 0 0)
(0.1054246683107578 0 0)
(0.1005973874944943 0 0)
(0.09393448190507389 0 0)
(0.08519104308633024 0 0)
(0.07422727185451079 0 0)
(0.06104413246556883 0 0)
(0.04579665183531528 0 0)
(0.02877808374636122 0 0)
(0.01036525368499364 0 0)
(-0.009076114737236109 0 0)
(-0.0292802166998018 0 0)
(-0.05004673881114152 0 0)
(-0.07089970104415866 0 0)
(-0.09025887790584398 0 0)
(-0.1046867769737059 0 0)
(-0.1112667165940756 0 0)
(-0.1124866119528301 0 0)
(-0.1125286758979024 0 0)
(-0.1124523194045305 0 0)
(-0.1122143242548991 0 0)
(-0.1115993814483247 0 0)
(-0.1103944455096275 0 0)
(-0.1083310047963044 0 0)
(-0.1051156931462332 0 0)
(-0.1004459230430869 0 0)
(-0.09403958793862628 0 0)
(-0.08566745768184163 0 0)
(-0.07518774328928171 0 0)
(-0.06258015981403039 0 0)
(-0.04796549073319784 0 0)
(-0.03159095653273523 0 0)
(-0.01377632099881503 0 0)
(0.005162266241126434 0 0)
(0.02497750549742967 0 0)
(0.04547900016431775 0 0)
(0.066290972434894 0 0)
(0.08613835016631469 0 0)
(0.1019080689815345 0 0)
(0.110091651742296 0 0)
(0.1119812803642861 0 0)
(0.1120754988616788 0 0)
(0.1120530052816377 0 0)
(0.1118617369930928 0 0)
(0.1113788943617012 0 0)
(0.1103824411042701 0 0)
(0.1086296841050726 0 0)
(0.1058410788843653 0 0)
(0.1017195619035743 0 0)
(0.09596892384607729 0 0)
(0.08832366852066126 0 0)
(0.07858529175508795 0 0)
(0.06665404787773928 0 0)
(0.0525473949149615 0 0)
(0.03640016768165086 0 0)
(0.01843644819296384 0 0)
(-0.001092307858919482 0 0)
(-0.02196648939475268 0 0)
(-0.04394480363939785 0 0)
(-0.06640330213740661 0 0)
(-0.08745931264487312 0 0)
(-0.1032054523594356 0 0)
(-0.1103970155594652 0 0)
(-0.111745211647296 0 0)
(-0.111794419497458 0 0)
(-0.1117332224608067 0 0)
(-0.1115369974483475 0 0)
(-0.1110192375857383 0 0)
(-0.1099956442265899 0 0)
(-0.108230984275081 0 0)
(-0.1054641900151417 0 0)
(-0.101418048688445 0 0)
(-0.09582055647114567 0 0)
(-0.08842885263690291 0 0)
(-0.07905687319086874 0 0)
(-0.06760553961280803 0 0)
(-0.05408425152906911 0 0)
(-0.03860782251779864 0 0)
(-0.02136463833219862 0 0)
(-0.002567274400654448 0 0)
(0.01759132888011554 0 0)
(0.03891661012245111 0 0)
(0.06096912889276557 0 0)
(0.08234025437332956 0 0)
(0.09965545651587936 0 0)
(0.1089492415994196 0 0)
(0.1112393109985757 0 0)
(0.1113795622499006 0 0)
(0.1113655843842635 0 0)
(0.1112137351586834 0 0)
(0.1108194492159222 0 0)
(0.1099879370109066 0 0)
(0.1085071010376883 0 0)
(0.106128402494894 0 0)
(0.1025813022301661 0 0)
(0.09758507429729239 0 0)
(0.09087053015403153 0 0)
(0.08220753617251621 0 0)
(0.07143037016303998 0 0)
(0.05845556608152086 0 0)
(0.04328947325816107 0 0)
(0.02601660200558724 0 0)
(0.006762651061261429 0 0)
(-0.01433758062542204 0 0)
(-0.03706940453196401 0 0)
(-0.06077577603472079 0 0)
(-0.08346766894898788 0 0)
(-0.1009420897405434 0 0)
(-0.1093357919642178 0 0)
(-0.1110540441933433 0 0)
(-0.1111309360937166 0 0)
(-0.1110842615347743 0 0)
(-0.1109282521373908 0 0)
(-0.1104967882094696 0 0)
(-0.1096282644960676 0 0)
(-0.1081132460389736 0 0)
(-0.1057175393470743 0 0)
(-0.1021877585842157 0 0)
(-0.09726656072040227 0 0)
(-0.09070975243820123 0 0)
(-0.08230765517407543 0 0)
(-0.07191016669899686 0 0)
(-0.05944627562501064 0 0)
(-0.04492614584535085 0 0)
(-0.02842378889964756 0 0)
(-0.01004798672638704 0 0)
(0.01008373575688901 0 0)
(0.03181741620409819 0 0)
(0.05473198352283564 0 0)
(0.07743970966416779 0 0)
(0.09651246144728656 0 0)
(0.107461132759447 0 0)
(0.1105013828698755 0 0)
(0.1107428448462765 0 0)
(0.1107374310752355 0 0)
(0.1106205570041112 0 0)
(0.110304253898882 0 0)
(0.1096136417286371 0 0)
(0.1083611682482193 0 0)
(0.1063238016627724 0 0)
(0.1032548050491903 0 0)
(0.0988909447082502 0 0)
(0.09296811044634867 0 0)
(0.08524132740661106 0 0)
(0.0755035773926787 0 0)
(0.0636010644120157 0 0)
(0.04944377404763497 0 0)
(0.03300333791107022 0 0)
(0.01429274051994446 0 0)
(-0.006646424025879847 0 0)
(-0.02966629311602335 0 0)
(-0.05417481371008094 0 0)
(-0.07828068475169379 0 0)
(-0.09774513341703049 0 0)
(-0.1079463255330969 0 0)
(-0.1103654361079246 0 0)
(-0.1105117510240882 0 0)
(-0.110477958427113 0 0)
(-0.1103601189400586 0 0)
(-0.1100073230216231 0 0)
(-0.1092762412297989 0 0)
(-0.1079774029895437 0 0)
(-0.1058985118634945 0 0)
(-0.1028069697841088 0 0)
(-0.09846082329055142 0 0)
(-0.09262067756690659 0 0)
(-0.08506598516592868 0 0)
(-0.07561511634091976 0 0)
(-0.06414145076988609 0 0)
(-0.05057735324038444 0 0)
(-0.03490628669612877 0 0)
(-0.01714775920537686 0 0)
(0.002656873841345428 0 0)
(0.02441605308873417 0 0)
(0.04778341376899009 0 0)
(0.07151986495495617 0 0)
(0.09237511279071157 0 0)
(0.105450427714141 0 0)
(0.109693894505788 0 0)
(0.1101427406031064 0 0)
(0.1101471221367549 0 0)
(0.1100607303964367 0 0)
(0.1098137114529617 0 0)
(0.109246265404143 0 0)
(0.1081908729015657 0 0)
(0.1064451591517943 0 0)
(0.1037828175709954 0 0)
(0.09995759126330114 0 0)
(0.09471451705104827 0 0)
(0.08780390886623045 0 0)
(0.07899459576492042 0 0)
(0.06808637338458844 0 0)
(0.0549212543147133 0 0)
(0.0393860986882871 0 0)
(0.02140251297760953 0 0)
(0.0009261715898298521 0 0)
(-0.02197809366719902 0 0)
(-0.04684253158732889 0 0)
(-0.0720221235741044 0 0)
(-0.0935171005509927 0 0)
(-0.1060528225305947 0 0)
(-0.1096186378515356 0 0)
(-0.1099201553404894 0 0)
(-0.109897827182915 0 0)
(-0.1098146402980101 0 0)
(-0.1095331220367976 0 0)
(-0.1089256484161993 0 0)
(-0.1078181705708132 0 0)
(-0.1060163071666354 0 0)
(-0.1033049906233782 0 0)
(-0.09945660158184648 0 0)
(-0.09423917847881975 0 0)
(-0.08742891996524003 0 0)
(-0.07882591065512738 0 0)
(-0.06826657431191602 0 0)
(-0.05562808068363559 0 0)
(-0.04082652061093544 0 0)
(-0.02381069780095326 0 0)
(-0.004554550083381662 0 0)
(0.01691780804326153 0 0)
(0.0403607023510238 0 0)
(0.06475718406295343 0 0)
(0.08722470808415993 0 0)
(0.1027280711773989 0 0)
(0.1087092651686622 0 0)
(0.1095613187118294 0 0)
(0.1095808070538618 0 0)
(0.1095208051483818 0 0)
(0.1093346207383354 0 0)
(0.1088753664936956 0 0)
(0.1079926052113867 0 0)
(0.1065006527642589 0 0)
(0.1041905058845862 0 0)
(0.1008314352289601 0 0)
(0.09617917112651207 0 0)
(0.08998523788372663 0 0)
(0.08200589619621911 0 0)
(0.07201220668469607 0 0)
(0.0598006939283796 0 0)
(0.0451976677384907 0 0)
(0.02805497899134379 0 0)
(0.008256284058940386 0 0)
(-0.01421611211804833 0 0)
(-0.03904040220318666 0 0)
(-0.06489228226658858 0 0)
(-0.0882321667844828 0 0)
(-0.1034544636939754 0 0)
(-0.1087200137903195 0 0)
(-0.1093419885328865 0 0)
(-0.1093343816668656 0 0)
(-0.1092813243833938 0 0)
(-0.1090628558276027 0 0)
(-0.1085664261365622 0 0)
(-0.1076300243231522 0 0)
(-0.1060741502625334 0 0)
(-0.1036984126993592 0 0)
(-0.1002878999469852 0 0)
(-0.09561893111520901 0 0)
(-0.0894688675644954 0 0)
(-0.0816282027666235 0 0)
(-0.0719097457671664 0 0)
(-0.06015298983183726 0 0)
(-0.04622608886690972 0 0)
(-0.03002459823024235 0 0)
(-0.01146698814667758 0 0)
(0.009484995018079421 0 0)
(0.03268889451560478 0 0)
(0.05737150333012548 0 0)
(0.08112952774081028 0 0)
(0.09912802370907604 0 0)
(0.10739498652166 0 0)
(0.1089683573853723 0 0)
(0.1090321003756307 0 0)
(0.1089927034923248 0 0)
(0.1088590058913318 0 0)
(0.108494136233123 0 0)
(0.1077633472742518 0 0)
(0.1064945823642602 0 0)
(0.1044935738084039 0 0)
(0.1015435405734076 0 0)
(0.09741120874088574 0 0)
(0.09185265342646808 0 0)
(0.08461921237974963 0 0)
(0.07546570935130323 0 0)
(0.06415979485310866 0 0)
(0.05048618129573289 0 0)
(0.03424573964160009 0 0)
(0.01526550428376234 0 0)
(-0.006545143679415616 0 0)
(-0.03100609412293415 0 0)
(-0.0571253744305668 0 0)
(-0.08195127473365438 0 0)
(-0.09996463083601426 0 0)
(-0.1075257041942224 0 0)
(-0.1087557501827437 0 0)
(-0.1087837489201731 0 0)
(-0.1087542342883796 0 0)
(-0.1085901273389718 0 0)
(-0.1081924292541563 0 0)
(-0.1074091404174457 0 0)
(-0.106073485965223 0 0)
(-0.1039974149786959 0 0)
(-0.1009771494838321 0 0)
(-0.09679733573129212 0 0)
(-0.09123896852737393 0 0)
(-0.08408847696997664 0 0)
(-0.07514427442971654 0 0)
(-0.06422109295299486 0 0)
(-0.05115417952761181 0 0)
(-0.03580026960657726 0 0)
(-0.01803428852847944 0 0)
(0.002234552918786685 0 0)
(0.02495601566158662 0 0)
(0.04958635493754541 0 0)
(0.07423185298363458 0 0)
(0.09455098240092612 0 0)
(0.1055531312731562 0 0)
(0.108309442176236 0 0)
(0.1084977716167307 0 0)
(0.1084724978061741 0 0)
(0.1083822955080354 0 0)
(0.1080989454357096 0 0)
(0.10750177095942 0 0)
(0.1064302473268345 0 0)
(0.1047030038814805 0 0)
(0.1021157667601059 0 0)
(0.09844599512512119 0 0)
(0.09345613670251002 0 0)
(0.08689758153196027 0 0)
(0.07851747723051601 0 0)
(0.06806633272979143 0 0)
(0.05530135307640245 0 0)
(0.03998759699559948 0 0)
(0.0219097401432839 0 0)
(0.0009172232389162928 0 0)
(-0.02293374140692449 0 0)
(-0.04895490479400125 0 0)
(-0.07481474780081132 0 0)
(-0.09545687254749323 0 0)
(-0.1058387030930644 0 0)
(-0.1081227393526082 0 0)
(-0.1082438439587696 0 0)
(-0.1082301260537431 0 0)
(-0.1081115761161985 0 0)
(-0.1078007210049339 0 0)
(-0.1071538279059535 0 0)
(-0.1060158459705729 0 0)
(-0.1042092522972788 0 0)
(-0.1015400868387795 0 0)
(-0.09780108386547863 0 0)
(-0.0927781877829458 0 0)
(-0.08625718073768873 0 0)
(-0.07802833314554992 0 0)
(-0.06789085377187029 0 0)
(-0.05565812945595747 0 0)
(-0.04115920333646651 0 0)
(-0.02423596503703656 0 0)
(-0.004756151066180879 0 0)
(0.01730574834187173 0 0)
(0.04160281689788547 0 0)
(0.06672005427254453 0 0)
(0.08899074739931731 0 0)
(0.1029697923847034 0 0)
(0.1074904051206837 0 0)
(0.1079701884827167 0 0)
(0.107958240066936 0 0)
(0.107903086290856 0 0)
(0.1076885178440675 0 0)
(0.1072082243754109 0 0)
(0.1063111215408099 0 0)
(0.1048275157898423 0 0)
(0.102564493334523 0 0)
(0.09930975122294776 0 0)
(0.09483306166493938 0 0)
(0.08888908469082414 0 0)
(0.08122301464804314 0 0)
(0.07157626526594614 0 0)
(0.05968875108314706 0 0)
(0.04530151002952714 0 0)
(0.02816887976859492 0 0)
(0.008093333422518764 0 0)
(-0.0149703345708486 0 0)
(-0.04058994404729207 0 0)
(-0.06701449388984231 0 0)
(-0.08990066577633506 0 0)
(-0.1034362402640037 0 0)
(-0.1073623850891744 0 0)
(-0.1077100447505609 0 0)
(-0.1077088193661922 0 0)
(-0.1076263592371475 0 0)
(-0.1073905254472189 0 0)
(-0.1068642982160942 0 0)
(-0.105903541387736 0 0)
(-0.1043400397940761 0 0)
(-0.1019886898685473 0 0)
(-0.09865000281027231 0 0)
(-0.09411551749923346 0 0)
(-0.08817244876838101 0 0)
(-0.08060715654866205 0 0)
(-0.07120980783763153 0 0)
(-0.05977975397466827 0 0)
(-0.04612660062483961 0 0)
(-0.03006792710004007 0 0)
(-0.01144034167760254 0 0)
(0.009840585897386908 0 0)
(0.03358675824210632 0 0)
(0.0587960050857426 0 0)
(0.08253526825502729 0 0)
(0.09946466875469673 0 0)
(0.1063600206813018 0 0)
(0.1074301407681017 0 0)
(0.1074503402557096 0 0)
(0.1074212484144581 0 0)
(0.107263398557562 0 0)
(0.1068843352838982 0 0)
(0.1061410973890674 0 0)
(0.1048747628845622 0 0)
(0.1029028248044289 0 0)
(0.1000226957054444 0 0)
(0.09601196066787855 0 0)
(0.09063062730616286 0 0)
(0.08362567492375515 0 0)
(0.07473484515791051 0 0)
(0.06368811542899525 0 0)
(0.05021145860473374 0 0)
(0.03403841255101338 0 0)
(0.01493587972038149 0 0)
(-0.007220651440198247 0 0)
(-0.03220306049041904 0 0)
(-0.05876100003870926 0 0)
(-0.08336896687077001 0 0)
(-0.1001126180011064 0 0)
(-0.1063365508879892 0 0)
(-0.1071727309347781 0 0)
(-0.1071890897109087 0 0)
(-0.1071354292304553 0 0)
(-0.1069628816469726 0 0)
(-0.1065421280179304 0 0)
(-0.1057396962378721 0 0)
(-0.1043955499125705 0 0)
(-0.1023328417802962 0 0)
(-0.09935957959190649 0 0)
(-0.09527315050887189 0 0)
(-0.08986347503895657 0 0)
(-0.08291590441036895 0 0)
(-0.07421604884215287 0 0)
(-0.0635546178448556 0 0)
(-0.05072779501832706 0 0)
(-0.03553585861994965 0 0)
(-0.01779304461354225 0 0)
(0.002629298871130159 0 0)
(0.02566588606883526 0 0)
(0.05064917010434833 0 0)
(0.07534373407528216 0 0)
(0.09493694419920429 0 0)
(0.1047116302407913 0 0)
(0.1068383557860613 0 0)
(0.1069492840738274 0 0)
(0.1069367984137064 0 0)
(0.1068248611545503 0 0)
(0.1065327360463969 0 0)
(0.1059245015931318 0 0)
(0.1048518496015366 0 0)
(0.1031418396306799 0 0)
(0.100601106826216 0 0)
(0.09701530680900708 0 0)
(0.09215111531464076 0 0)
(0.08575967022868181 0 0)
(0.0775786827210735 0 0)
(0.06733351388208358 0 0)
(0.05474175264581468 0 0)
(0.0395233859053709 0 0)
(0.02141913457274709 0 0)
(0.0002446738270866531 0 0)
(-0.02392796869462009 0 0)
(-0.05025590685765281 0 0)
(-0.07601691394318066 0 0)
(-0.09573254839566328 0 0)
(-0.1048489384382647 0 0)
(-0.1065991827470017 0 0)
(-0.106672720866889 0 0)
(-0.106639526519927 0 0)
(-0.1065196762727685 0 0)
(-0.1061899269961048 0 0)
(-0.1055280704780069 0 0)
(-0.1043815140064673 0 0)
(-0.1025812418552118 0 0)
(-0.09994253130379584 0 0)
(-0.09626868179693043 0 0)
(-0.09135313589817323 0 0)
(-0.08498226336630584 0 0)
(-0.07694016547931727 0 0)
(-0.06701255377638549 0 0)
(-0.05498659165545958 0 0)
(-0.04065078948624724 0 0)
(-0.02380391367184628 0 0)
(-0.004284842355537191 0 0)
(0.01793318824609065 0 0)
(0.0424415911538303 0 0)
(0.06761086320398833 0 0)
(0.08939083944407827 0 0)
(0.1023215285876434 0 0)
(0.1061091820098971 0 0)
(0.1064513957844567 0 0)
(0.1064515150685535 0 0)
(0.106374875604603 0 0)
(0.1061564056505285 0 0)
(0.1056659000198765 0 0)
(0.1047655020903414 0 0)
(0.1032912485781976 0 0)
(0.101058590343125 0 0)
(0.09786137940577619 0 0)
(0.09347377002346464 0 0)
(0.08765251539824241 0 0)
(0.08013776572771251 0 0)
(0.07065415160197813 0 0)
(0.05891577169908903 0 0)
(0.04463441320389042 0 0)
(0.02753213214881319 0 0)
(0.007380967858355384 0 0)
(-0.01586285475312278 0 0)
(-0.04167439064339613 0 0)
(-0.068046336274996 0 0)
(-0.09026842395822261 0 0)
(-0.1026651295561398 0 0)
(-0.1059173002735919 0 0)
(-0.1061605995705328 0 0)
(-0.1061408564018172 0 0)
(-0.1060629718703483 0 0)
(-0.1058107940209676 0 0)
(-0.1052729143893908 0 0)
(-0.1043036967660233 0 0)
(-0.1027418971632102 0 0)
(-0.1004098250071122 0 0)
(-0.09711666695029306 0 0)
(-0.09265997262836229 0 0)
(-0.08682856930006171 0 0)
(-0.07940707282183443 0 0)
(-0.07017865376024306 0 0)
(-0.05892474923327284 0 0)
(-0.04542638587877149 0 0)
(-0.02947199026112819 0 0)
(-0.01087689832872354 0 0)
(0.01045293407196455 0 0)
(0.03430218134973391 0 0)
(0.05953488201912883 0 0)
(0.08293100595682953 0 0)
(0.0989972934196722 0 0)
(0.1050959483808303 0 0)
(0.1059465881573753 0 0)
(0.1059652807327834 0 0)
(0.1059160891585984 0 0)
(0.1057587705725618 0 0)
(0.1053698379422116 0 0)
(0.1046221049527231 0 0)
(0.1033598044671416 0 0)
(0.1014069245036912 0 0)
(0.09856557083940307 0 0)
(0.09461782039113414 0 0)
(0.08932690597060308 0 0)
(0.08243714419997575 0 0)
(0.07367529317443516 0 0)
(0.06275546014869279 0 0)
(0.04938512054316582 0 0)
(0.03327364998984841 0 0)
(0.01416238979040653 0 0)
(-0.008076329843898562 0 0)
(-0.03315825653441701 0 0)
(-0.05967054595249641 0 0)
(-0.0838013600980146 0 0)
(-0.09956358579766139 0 0)
(-0.1050008944484023 0 0)
(-0.1056444862586613 0 0)
(-0.1056409752510835 0 0)
(-0.1055959683234251 0 0)
(-0.1054081412216932 0 0)
(-0.1049786190698923 0 0)
(-0.1041678210911829 0 0)
(-0.1028222800214069 0 0)
(-0.1007711828488746 0 0)
(-0.09782955339073061 0 0)
(-0.09379949965532805 0 0)
(-0.08847332877089552 0 0)
(-0.08163748143420876 0 0)
(-0.0730742756903861 0 0)
(-0.06256195662163369 0 0)
(-0.04987732042251921 0 0)
(-0.03480209295572252 0 0)
(-0.01713467694616413 0 0)
(0.003266986920842028 0 0)
(0.02632767385243052 0 0)
(0.05129534191885272 0 0)
(0.07573137900849912 0 0)
(0.09463043117910036 0 0)
(0.1035966468043052 0 0)
(0.105397621755235 0 0)
(0.1054807231503746 0 0)
(0.105450363139226 0 0)
(0.105343220461724 0 0)
(0.1050409524266556 0 0)
(0.1044277654139573 0 0)
(0.1033555261755483 0 0)
(0.1016565256179784 0 0)
(0.09914114293988652 0 0)
(0.09559957759222139 0 0)
(0.09080202860169839 0 0)
(0.08449822231846146 0 0)
(0.0764191271760282 0 0)
(0.06628128436186874 0 0)
(0.05379069248720206 0 0)
(0.03864885320817872 0 0)
(0.02057648967055393 0 0)
(-0.0006137524897326115 0 0)
(-0.02481593905124928 0 0)
(-0.05108759258820398 0 0)
(-0.07649683685228398 0 0)
(-0.09539530639323753 0 0)
(-0.1036574518229641 0 0)
(-0.1050982293900201 0 0)
(-0.1051431782934444 0 0)
(-0.1051208834899238 0 0)
(-0.1049856265230666 0 0)
(-0.1046496788708694 0 0)
(-0.1039795202249984 0 0)
(-0.102829536404327 0 0)
(-0.1010355431786465 0 0)
(-0.09841840240966011 0 0)
(-0.09478517011504969 0 0)
(-0.08993234558099859 0 0)
(-0.08364903070931218 0 0)
(-0.07571792765284301 0 0)
(-0.06591608600490856 0 0)
(-0.05401843796846569 0 0)
(-0.03980247142742476 0 0)
(-0.02305456371819665 0 0)
(-0.003599302981545167 0 0)
(0.01858728332533704 0 0)
(0.04304177504832808 0 0)
(0.06799704917498642 0 0)
(0.08922433347891796 0 0)
(0.1013797339160607 0 0)
(0.1047257844584849 0 0)
(0.1049983533451697 0 0)
(0.1049811281031 0 0)
(0.1049136344846727 0 0)
(0.1046842424038885 0 0)
(0.1041881086462704 0 0)
(0.1032840835436036 0 0)
(0.1018132459694373 0 0)
(0.09959514528641324 0 0)
(0.09642935691134366 0 0)
(0.09209440856948965 0 0)
(0.08634661817356097 0 0)
(0.07892104952686291 0 0)
(0.06953431504250036 0 0)
(0.05788818466333607 0 0)
(0.04367762625262787 0 0)
(0.02661146543398027 0 0)
(0.006461465759105325 0 0)
(-0.01679084423980313 0 0)
(-0.04255315787858117 0 0)
(-0.06866229981362264 0 0)
(-0.09017613331039735 0 0)
(-0.1016630129084664 0 0)
(-0.1044002849515116 0 0)
(-0.1045674860060066 0 0)
(-0.1044860388129948 0 0)
(-0.1042980049278963 0 0)
(-0.1039691155132142 0 0)
(-0.1033691743294491 0 0)
(-0.1023484073379565 0 0)
(-0.1007420792006034 0 0)
(-0.09837292730320718 0 0)
(-0.09505675052164987 0 0)
(-0.09060884897836163 0 0)
(-0.08484354975154865 0 0)
(-0.07756365140668428 0 0)
(-0.06854547767820285 0 0)
(-0.05753152777028291 0 0)
(-0.04423872221826397 0 0)
(-0.02837443923580115 0 0)
(-0.009674271944215756 0 0)
(0.01200015454530667 0 0)
(0.03630678881685108 0 0)
(0.06187082146969135 0 0)
(0.08518901392830133 0 0)
(0.1001795862720139 0 0)
(0.1052758440842046 0 0)
(0.1052430369301691 0 0)
(0.1033622318337151 0 0)
(0.1006240078776697 0 0)
(0.09727131071889455 0 0)
(0.09351055640547087 0 0)
(0.08935500245917929 0 0)
(0.08476357568079849 0 0)
(0.07947527455998901 0 0)
(0.07293966831149611 0 0)
(0.06556352577250077 0 0)
(0.05694497645163091 0 0)
(0.04681283725095355 0 0)
(0.03520106782660605 0 0)
(0.02220226198984008 0 0)
(0.007841812805963124 0 0)
(-0.007862082912380403 0 0)
(-0.02492741261544599 0 0)
(-0.04363438433460209 0 0)
(-0.06391838189614946 0 0)
(-0.08480669529292123 0 0)
(-0.1022308635833215 0 0)
(-0.111463208402285 0 0)
(-0.1143634294864027 0 0)
(-0.1148389589955643 0 0)
(-0.1141234472240247 0 0)
(-0.1126985309323396 0 0)
(-0.1115462376244639 0 0)
(-0.11067686242948 0 0)
(-0.1096813339159856 0 0)
(-0.108260999253565 0 0)
(-0.1061478623744484 0 0)
(-0.1031146967489356 0 0)
(-0.09904271488242374 0 0)
(-0.09377454997930376 0 0)
(-0.08709750051912932 0 0)
(-0.07873747020259647 0 0)
(-0.06841734949347388 0 0)
(-0.05589240490322879 0 0)
(-0.04092253599632317 0 0)
(-0.02324203776622709 0 0)
(-0.002702055546940515 0 0)
(0.0203412545931907 0 0)
(0.04457934890575943 0 0)
(0.06770539674051429 0 0)
(0.08596176821647805 0 0)
(0.09579714140300093 0 0)
(0.09762325775502667 0 0)
(0.09681275657623932 0 0)
(0.09485349443893779 0 0)
(0.09199764595402499 0 0)
(0.08841978675569992 0 0)
(0.08423974313725138 0 0)
(0.07962271520364256 0 0)
(0.07459346907458225 0 0)
(0.06863823969177335 0 0)
(0.06215939839761339 0 0)
(0.05465431564915785 0 0)
(0.04562445929092521 0 0)
(0.03481775139016582 0 0)
(0.02217820157957639 0 0)
(0.007739418024111406 0 0)
(-0.008412872749785288 0 0)
(-0.02609868641728729 0 0)
(-0.04508199367064642 0 0)
(-0.0650705856148899 0 0)
(-0.08551247939271769 0 0)
(-0.1045159325947758 0 0)
(-0.1170739936698472 0 0)
(-0.1220125090839941 0 0)
(-0.1232113429829104 0 0)
(-0.122962206646923 0 0)
(-0.1217601193761565 0 0)
(-0.1202166672880137 0 0)
(-0.1191195598961968 0 0)
(-0.11790748878338 0 0)
(-0.1163232910178293 0 0)
(-0.1142015583742002 0 0)
(-0.1113681961590723 0 0)
(-0.1077137310090139 0 0)
(-0.1030063489314382 0 0)
(-0.09696068244364002 0 0)
(-0.08927849901610579 0 0)
(-0.07969342683996648 0 0)
(-0.06795776409427283 0 0)
(-0.05383326965901497 0 0)
(-0.03711338641011134 0 0)
(-0.01775100010436435 0 0)
(0.004358745578358113 0 0)
(0.02636211323973936 0 0)
(0.05879878805376054 0 0)
)
;

boundaryField
{
    inlet
    {
        type            zeroGradient;
    }
    outlet
    {
        type            characteristicPressureInletOutletVelocity;
        UName           U;
        pName           p;
        TName           T;
        phiName         phi;
        rhoName         rho;
        U               (0 0 0);
        p               101325;
        T               300;
        value           uniform (0.05879878805376054 0 0);
    }
    frontAndBack
    {
        type            empty;
    }
}


// ************************************************************************* //
