/*--------------------------------*- C++ -*----------------------------------*\
| =========                 |                                                 |
| \\      /  F ield         | OpenFOAM: The Open Source CFD Toolbox           |
|  \\    /   O peration     | Version:  v2012                                 |
|   \\  /    A nd           | Website:  www.openfoam.com                      |
|    \\/     M anipulation  |                                                 |
\*---------------------------------------------------------------------------*/
FoamFile
{
    version     2.0;
    format      ascii;
    class       volVectorField;
    location    "0.008";
    object      UMean;
}
// * * * * * * * * * * * * * * * * * * * * * * * * * * * * * * * * * * * * * //

dimensions      [0 1 -1 0 0 0 0];


internalField   nonuniform List<vector> 
1000
(
(-3.678929879652842e-05 0 0)
(9.185440350159996e-06 0 0)
(3.412455658010649e-05 0 0)
(8.269976552203877e-05 0 0)
(0.0001396480505434347 0 0)
(0.0002047781406074354 0 0)
(0.0002847964356109585 0 0)
(0.0003718045730628982 0 0)
(0.0004707922022968405 0 0)
(0.0005754095096394415 0 0)
(0.0006839307918440491 0 0)
(0.0007921939506721134 0 0)
(0.0009000995748838661 0 0)
(0.001006583073823678 0 0)
(0.001110160045051886 0 0)
(0.001208429726022678 0 0)
(0.001299384204933164 0 0)
(0.00138096522912656 0 0)
(0.001451917897187043 0 0)
(0.001510763919845606 0 0)
(0.001556791512348711 0 0)
(0.001588811367946136 0 0)
(0.001606593666112839 0 0)
(0.001609384887127686 0 0)
(0.00159749411359298 0 0)
(0.001570767279949553 0 0)
(0.001530103870567746 0 0)
(0.001475887028428425 0 0)
(0.001409283841027645 0 0)
(0.001330646685450698 0 0)
(0.001241040965749055 0 0)
(0.001141780792553035 0 0)
(0.001036951688531296 0 0)
(0.0009303720175006756 0 0)
(0.0008239320300202474 0 0)
(0.0007177149001514251 0 0)
(0.0006124935459551462 0 0)
(0.0005094206574467383 0 0)
(0.0004102458179171701 0 0)
(0.0003171130344290349 0 0)
(0.0002322808453667523 0 0)
(0.0001578423935306216 0 0)
(9.545049303673498e-05 0 0)
(4.632370473618034e-05 0 0)
(1.124475815119683e-05 0 0)
(-9.239692770406442e-06 0 0)
(-1.487198669021404e-05 0 0)
(-5.562997352205446e-06 0 0)
(1.848350416777069e-05 0 0)
(5.688775511402877e-05 0 0)
(0.0001090893714623255 0 0)
(0.0001746265269746038 0 0)
(0.0002530478499412858 0 0)
(0.0003435381650265158 0 0)
(0.0004434560257002314 0 0)
(0.0005480771196061852 0 0)
(0.0006536162590132397 0 0)
(0.0007591052387079077 0 0)
(0.0008643770692480725 0 0)
(0.000968666106247028 0 0)
(0.001071259837170829 0 0)
(0.001170387355653253 0 0)
(0.001264467557339583 0 0)
(0.001351024496774586 0 0)
(0.001428169110372369 0 0)
(0.001493597959465498 0 0)
(0.001546051688159853 0 0)
(0.001584145804213753 0 0)
(0.001607596029275388 0 0)
(0.001615869826758931 0 0)
(0.001609328487779679 0 0)
(0.001587908030895295 0 0)
(0.001552250617193213 0 0)
(0.001502358359311967 0 0)
(0.001438719423383703 0 0)
(0.001361260467056024 0 0)
(0.001271294806052064 0 0)
(0.001171683152129654 0 0)
(0.001067845896787145 0 0)
(0.0009630715884546354 0 0)
(0.0008584658932576472 0 0)
(0.0007540437990031161 0 0)
(0.0006503654006621313 0 0)
(0.0005482247879246592 0 0)
(0.0004488874512946133 0 0)
(0.0003539912905259993 0 0)
(0.0002655527291723136 0 0)
(0.0001857261407682342 0 0)
(0.000116686737801716 0 0)
(6.029826440640488e-05 0 0)
(1.804895483621965e-05 0 0)
(-9.159626140686769e-06 0 0)
(-2.088756354437361e-05 0 0)
(-1.716507448613161e-05 0 0)
(1.782706878980875e-06 0 0)
(3.561720220923756e-05 0 0)
(8.414703724961113e-05 0 0)
(0.0001472622818460311 0 0)
(0.0002247867267915325 0 0)
(0.0003153598093406548 0 0)
(0.0004151629963643814 0 0)
(0.0005186828424710466 0 0)
(0.0006227635329408277 0 0)
(0.0007267492612295402 0 0)
(0.0008305787275985808 0 0)
(0.0009336066548224984 0 0)
(0.001035336360044666 0 0)
(0.001134372966590318 0 0)
(0.001229483748850526 0 0)
(0.001318561067540917 0 0)
(0.001399810010918019 0 0)
(0.001470838255421113 0 0)
(0.001529937796243585 0 0)
(0.001575203392026752 0 0)
(0.001605758161653674 0 0)
(0.001620715501876917 0 0)
(0.001620196830726846 0 0)
(0.001604112877855483 0 0)
(0.00157301219695556 0 0)
(0.001526815516554322 0 0)
(0.001465816031693884 0 0)
(0.001389916565935278 0 0)
(0.001300713672866231 0 0)
(0.001201837483382896 0 0)
(0.001099112346954634 0 0)
(0.0009956272239744633 0 0)
(0.0008922958296142703 0 0)
(0.0007890890117765597 0 0)
(0.0006864914682473566 0 0)
(0.0005850712078266576 0 0)
(0.0004858755519271491 0 0)
(0.0003901785171503111 0 0)
(0.0002997242425271591 0 0)
(0.0002164042116348132 0 0)
(0.0001423888901094274 0 0)
(7.969215689506487e-05 0 0)
(3.02500100015608e-05 0 0)
(-4.537042568572013e-06 0 0)
(-2.364153844176948e-05 0 0)
(-2.66887862323127e-05 0 0)
(-1.356313714644651e-05 0 0)
(1.552934854380608e-05 0 0)
(6.05430494633745e-05 0 0)
(0.0001213552087723459 0 0)
(0.000197693820151985 0 0)
(0.0002876874448098552 0 0)
(0.0003868292298922437 0 0)
(0.0004893168463709489 0 0)
(0.0005922757506508943 0 0)
(0.0006951329253754065 0 0)
(0.0007978795296425484 0 0)
(0.0008999587598306128 0 0)
(0.001000998841650615 0 0)
(0.001099838434054179 0 0)
(0.001195481732037535 0 0)
(0.00128611543677606 0 0)
(0.001370154278569461 0 0)
(0.001445342563294414 0 0)
(0.001509899631715561 0 0)
(0.001561695149526675 0 0)
(0.001599416794669867 0 0)
(0.001621701436687993 0 0)
(0.001628158204887231 0 0)
(0.001618315011973725 0 0)
(0.001592431435622904 0 0)
(0.00155030090237247 0 0)
(0.001492171937218244 0 0)
(0.001418095220503554 0 0)
(0.001329989585791934 0 0)
(0.001232016732596054 0 0)
(0.001130270560370567 0 0)
(0.00102780692607773 0 0)
(0.0009254814176358991 0 0)
(0.0008232380566035371 0 0)
(0.0007214958857431827 0 0)
(0.0006206847107206074 0 0)
(0.0005216916980685574 0 0)
(0.0004255435195193788 0 0)
(0.0003337548794720153 0 0)
(0.0002479616146663784 0 0)
(0.00017019010147954 0 0)
(0.0001024013931384531 0 0)
(4.668162799021697e-05 0 0)
(4.734806983727519e-06 0 0)
(-2.19297288851559e-05 0 0)
(-3.241752073085203e-05 0 0)
(-2.606921767163315e-05 0 0)
(-2.685730413537217e-06 0 0)
(3.798396122971004e-05 0 0)
(9.591191373859764e-05 0 0)
(0.0001706891823961016 0 0)
(0.0002599161107561132 0 0)
(0.0003583965111889594 0 0)
(0.000460022138522577 0 0)
(0.0005620689366201825 0 0)
(0.0006640192259431619 0 0)
(0.0007658901441905623 0 0)
(0.0008671945019370597 0 0)
(0.0009676515570571418 0 0)
(0.001066265634617757 0 0)
(0.00116221800489998 0 0)
(0.001253930904782189 0 0)
(0.001340016758984946 0 0)
(0.001418406681434275 0 0)
(0.001487377820982052 0 0)
(0.001544759928274653 0 0)
(0.001589009766075053 0 0)
(0.001618417412629075 0 0)
(0.001632116995273029 0 0)
(0.001629165960732434 0 0)
(0.001609364864859786 0 0)
(0.001572195160597579 0 0)
(0.001517708011868306 0 0)
(0.00144598643025115 0 0)
(0.001359234755180445 0 0)
(0.001262167423532918 0 0)
(0.001161253218441008 0 0)
(0.001059633614527751 0 0)
(0.0009581380437591236 0 0)
(0.0008566930382824231 0 0)
(0.0007556681321463292 0 0)
(0.0006553934624236794 0 0)
(0.0005566323390950912 0 0)
(0.0004602272755332156 0 0)
(0.0003674996673696782 0 0)
(0.0002798672549132354 0 0)
(0.0001991795478652889 0 0)
(0.0001272749125967696 0 0)
(6.624540475609996e-05 0 0)
(1.79283968947029e-05 0 0)
(-1.585673065561592e-05 0 0)
(-3.378261925424426e-05 0 0)
(-3.466300001798989e-05 0 0)
(-1.777585218382408e-05 0 0)
(1.759516609016482e-05 0 0)
(7.17151873437283e-05 0 0)
(0.0001442121764455766 0 0)
(0.0002322808574569895 0 0)
(0.0003300229939797008 0 0)
(0.0004309043552555281 0 0)
(0.0005321939948087387 0 0)
(0.0006333926345426749 0 0)
(0.0007345345083333867 0 0)
(0.0008351927129042422 0 0)
(0.0009351456414231906 0 0)
(0.00103353215900812 0 0)
(0.001129666739841498 0 0)
(0.001222167834078202 0 0)
(0.001309817555479984 0 0)
(0.001390738596222934 0 0)
(0.001463313062933173 0 0)
(0.001525423136081985 0 0)
(0.001575421632391956 0 0)
(0.001611399798433066 0 0)
(0.001632127671675892 0 0)
(0.00163624241181457 0 0)
(0.00162305891176465 0 0)
(0.001591644077628741 0 0)
(0.001541691854218912 0 0)
(0.00147314259844102 0 0)
(0.001388298125789358 0 0)
(0.001292325629162851 0 0)
(0.001192183538048112 0 0)
(0.001091287320931632 0 0)
(0.0009904976349313127 0 0)
(0.0008897360300446287 0 0)
(0.0007893283036178346 0 0)
(0.0006895328233233072 0 0)
(0.0005910106228251466 0 0)
(0.0004944682631668098 0 0)
(0.0004010598489807017 0 0)
(0.0003120209875929026 0 0)
(0.0002290254250319768 0 0)
(0.0001537685643781773 0 0)
(8.827203638036797e-05 0 0)
(3.44086021213218e-05 0 0)
(-5.832111895459319e-06 0 0)
(-3.081258975860009e-05 0 0)
(-3.891469489959672e-05 0 0)
(-2.891233160870531e-05 0 0)
(4.175331339178328e-07 0 0)
(4.976827213183148e-05 0 0)
(0.0001190001481234584 0 0)
(0.0002051900365064923 0 0)
(0.0003019228667238184 0 0)
(0.0004020979337446653 0 0)
(0.0005027285592455797 0 0)
(0.0006032807329605365 0 0)
(0.0007037935976651739 0 0)
(0.0008038937845331739 0 0)
(0.0009034031512283101 0 0)
(0.001001571748657282 0 0)
(0.001097811675936029 0 0)
(0.00119090862977368 0 0)
(0.001279786103233362 0 0)
(0.00136274918990944 0 0)
(0.001438293206538843 0 0)
(0.001504402477823404 0 0)
(0.001559403224172774 0 0)
(0.001601292712226938 0 0)
(0.001628585819458776 0 0)
(0.001639601688478427 0 0)
(0.001633220095212524 0 0)
(0.0016080942026459 0 0)
(0.001563495169679278 0 0)
(0.001499068958302931 0 0)
(0.001416939826767232 0 0)
(0.0013224600247893 0 0)
(0.001223120558553014 0 0)
(0.001122871715368505 0 0)
(0.001022705504049142 0 0)
(0.0009225488129252673 0 0)
(0.0008226868796144353 0 0)
(0.0007233268800312356 0 0)
(0.0006250424299215074 0 0)
(0.0005284359609301334 0 0)
(0.0004345204017239105 0 0)
(0.0003443813229484944 0 0)
(0.0002595270912344146 0 0)
(0.0001815138220037411 0 0)
(0.0001122556555807114 0 0)
(5.360345784822738e-05 0 0)
(7.617328703994103e-06 0 0)
(-2.386068222768099e-05 0 0)
(-3.890190761227436e-05 0 0)
(-3.586205337312713e-05 0 0)
(-1.306346242053089e-05 0 0)
(3.065333125360225e-05 0 0)
(9.554408415731015e-05 0 0)
(0.0001789310856064773 0 0)
(0.0002742230355364202 0 0)
(0.0003736578000298835 0 0)
(0.0004736878671216779 0 0)
(0.0005736573323850885 0 0)
(0.0006736025405296825 0 0)
(0.0007732016863522637 0 0)
(0.000872307523378266 0 0)
(0.0009702627120341019 0 0)
(0.00106655766238644 0 0)
(0.001160116927982866 0 0)
(0.001249981370871361 0 0)
(0.001334619110015986 0 0)
(0.001412638616717606 0 0)
(0.001482143690242293 0 0)
(0.001541481257115621 0 0)
(0.001588624132245365 0 0)
(0.001621926747891341 0 0)
(0.001639488288316984 0 0)
(0.001639847123443703 0 0)
(0.001621303428098254 0 0)
(0.001582715806072349 0 0)
(0.001523338448480704 0 0)
(0.001444856531585364 0 0)
(0.001352436830661755 0 0)
(0.001254025996006107 0 0)
(0.001154383426725989 0 0)
(0.001054786393568162 0 0)
(0.0009551833578034841 0 0)
(0.0008558217829802159 0 0)
(0.0007568682788542306 0 0)
(0.0006588214386490151 0 0)
(0.0005622015234855968 0 0)
(0.0004679029604465367 0 0)
(0.00037688733551359 0 0)
(0.0002905136609191171 0 0)
(0.0002102094979732938 0 0)
(0.0001377687090961326 0 0)
(7.498768903824895e-05 0 0)
(2.393097176666911e-05 0 0)
(-1.344417782145835e-05 0 0)
(-3.500764253152992e-05 0 0)
(-3.880767690690381e-05 0 0)
(-2.280492104218665e-05 0 0)
(1.459546768314592e-05 0 0)
(7.414125119831879e-05 0 0)
(0.0001537233637136422 0 0)
(0.000246998108121309 0 0)
(0.0003455763158555904 0 0)
(0.000445034894176547 0 0)
(0.0005444606011213305 0 0)
(0.0006438746746504115 0 0)
(0.0007430041756019435 0 0)
(0.0008417274584056607 0 0)
(0.0009394671322485585 0 0)
(0.001035776014292488 0 0)
(0.001129696256124791 0 0)
(0.001220367066323268 0 0)
(0.001306399098252055 0 0)
(0.00138650665542298 0 0)
(0.001458914903736504 0 0)
(0.001522017745732274 0 0)
(0.001573810806425729 0 0)
(0.001612561098075648 0 0)
(0.001636232723747932 0 0)
(0.001643120083902253 0 0)
(0.001631253589348724 0 0)
(0.001599133699900461 0 0)
(0.00154559584812175 0 0)
(0.00147170130903781 0 0)
(0.001382049728853016 0 0)
(0.001284811998260316 0 0)
(0.001185771746298517 0 0)
(0.001086708615569144 0 0)
(0.0009876256137414802 0 0)
(0.0008887372764645342 0 0)
(0.0007901748527780567 0 0)
(0.0006923721722864786 0 0)
(0.0005957825616526096 0 0)
(0.0005011976997236434 0 0)
(0.0004094763556913379 0 0)
(0.0003218468061583122 0 0)
(0.0002396197312798026 0 0)
(0.0001644689244578164 0 0)
(9.811735186526104e-05 0 0)
(4.259159589245001e-05 0 0)
(-1.029872107386309e-07 0 0)
(-2.772559928156417e-05 0 0)
(-3.812021158375545e-05 0 0)
(-2.898567899858735e-05 0 0)
(1.638879778038874e-06 0 0)
(5.501252733377405e-05 0 0)
(0.0001298025310634347 0 0)
(0.0002203403386463822 0 0)
(0.0003178359874178828 0 0)
(0.0004167237498927021 0 0)
(0.0005156293125740166 0 0)
(0.0006145340399525435 0 0)
(0.0007132096840277622 0 0)
(0.0008115581662640925 0 0)
(0.0009090709011264237 0 0)
(0.001005354880986302 0 0)
(0.001099551887506073 0 0)
(0.00119088530874004 0 0)
(0.001278089889153107 0 0)
(0.001359976882376639 0 0)
(0.001434887109559787 0 0)
(0.001501276536625642 0 0)
(0.001557190799419199 0 0)
(0.001600863783761141 0 0)
(0.001630191864555989 0 0)
(0.001643310507687328 0 0)
(0.001638062743562512 0 0)
(0.001612666000269946 0 0)
(0.001565563195674335 0 0)
(0.00149711471294445 0 0)
(0.001411046709066459 0 0)
(0.001315374482871336 0 0)
(0.001216981501952683 0 0)
(0.001118429550160324 0 0)
(0.001019844743190735 0 0)
(0.0009214149842337441 0 0)
(0.0008232390764275792 0 0)
(0.0007256941715346364 0 0)
(0.0006291754333388888 0 0)
(0.0005343868090892922 0 0)
(0.0004420989209868787 0 0)
(0.0003534253469161766 0 0)
(0.0002695718403403824 0 0)
(0.0001920968225645787 0 0)
(0.0001226407193640858 0 0)
(6.316663991944535e-05 0 0)
(1.567944526756866e-05 0 0)
(-1.753760751191464e-05 0 0)
(-3.420970727938892e-05 0 0)
(-3.186431141189403e-05 0 0)
(-8.257318241495157e-06 0 0)
(3.833662420365751e-05 0 0)
(0.000107437347739477 0 0)
(0.0001943991664952446 0 0)
(0.0002904400833666813 0 0)
(0.0003887195154097043 0 0)
(0.0004871203836120234 0 0)
(0.0005855284015092495 0 0)
(0.0006837562803290619 0 0)
(0.0007817277834927978 0 0)
(0.0008789956293315897 0 0)
(0.0009752151637577909 0 0)
(0.001069614124918706 0 0)
(0.001161489806983396 0 0)
(0.001249684894495677 0 0)
(0.00133309912894003 0 0)
(0.001410181446751729 0 0)
(0.001479457034449485 0 0)
(0.001539037666544122 0 0)
(0.001587161899821815 0 0)
(0.00162170728259996 0 0)
(0.001640718268676841 0 0)
(0.001641921115677756 0 0)
(0.001623326127771649 0 0)
(0.001583045548020561 0 0)
(0.001520757983951423 0 0)
(0.001439136393764886 0 0)
(0.001345591319423734 0 0)
(0.001247967645348686 0 0)
(0.001149915013277347 0 0)
(0.001051813971481458 0 0)
(0.0009538355179222765 0 0)
(0.0008560481010462071 0 0)
(0.0007587786794193485 0 0)
(0.0006623713368805094 0 0)
(0.0005674528152804388 0 0)
(0.0004747167652861445 0 0)
(0.0003851754710068962 0 0)
(0.0002999399302667287 0 0)
(0.0002204599563101744 0 0)
(0.0001482896522300669 0 0)
(8.531353693971201e-05 0 0)
(3.350313092636686e-05 0 0)
(-4.864340914036833e-06 0 0)
(-2.746043551432511e-05 0 0)
(-3.171518787468117e-05 0 0)
(-1.518356477637027e-05 0 0)
(2.424527439622133e-05 0 0)
(8.690866889654957e-05 0 0)
(0.0001693922355542955 0 0)
(0.0002634330065428557 0 0)
(0.0003610012716440795 0 0)
(0.0004589051088046312 0 0)
(0.0005568243497081008 0 0)
(0.0006546055126822379 0 0)
(0.0007521925293460837 0 0)
(0.0008491933817332534 0 0)
(0.0009453079948610633 0 0)
(0.001039839566957853 0 0)
(0.00113215185250153 0 0)
(0.001221182764760955 0 0)
(0.001305913122550386 0 0)
(0.00138489176352107 0 0)
(0.001456716147640619 0 0)
(0.001519573154910892 0 0)
(0.001571730794488805 0 0)
(0.001611082348532926 0 0)
(0.00163563160513641 0 0)
(0.001643044404659073 0 0)
(0.001631191718001326 0 0)
(0.00159793085687783 0 0)
(0.001542341272889396 0 0)
(0.001466001894501614 0 0)
(0.0013753060572624 0 0)
(0.001278688318076386 0 0)
(0.001181141595045833 0 0)
(0.001083513513032401 0 0)
(0.0009859832302627723 0 0)
(0.0008885901331895139 0 0)
(0.0007916166665403615 0 0)
(0.0006953605570600756 0 0)
(0.0006003799038367581 0 0)
(0.0005072995238867289 0 0)
(0.0004170414456660758 0 0)
(0.0003306299865006771 0 0)
(0.0002494133648503062 0 0)
(0.0001748589977049529 0 0)
(0.0001087646623278345 0 0)
(5.304747858282719e-05 0 0)
(9.944835924085733e-06 0 0)
(-1.820798215358879e-05 0 0)
(-2.880160051544365e-05 0 0)
(-1.926187179512207e-05 0 0)
(1.281385159575971e-05 0 0)
(6.847570095090234e-05 0 0)
(0.0001455930530852378 0 0)
(0.0002369139371872083 0 0)
(0.0003335636779547879 0 0)
(0.0004309651625238896 0 0)
(0.0005284019885325337 0 0)
(0.0006257352591664212 0 0)
(0.0007229276583888112 0 0)
(0.0008196376583971243 0 0)
(0.0009156066672347555 0 0)
(0.001010205619997658 0 0)
(0.001102859051555557 0 0)
(0.001192590297505727 0 0)
(0.001278454994418597 0 0)
(0.001359094745916342 0 0)
(0.001433179678420263 0 0)
(0.001498976011801704 0 0)
(0.001554797189634832 0 0)
(0.001598575394787914 0 0)
(0.001628310009967241 0 0)
(0.001641649214430998 0 0)
(0.001636380388139219 0 0)
(0.0016101801111342 0 0)
(0.001561641351617419 0 0)
(0.001491321773584686 0 0)
(0.001404313054699572 0 0)
(0.001309093038328441 0 0)
(0.001212094627813908 0 0)
(0.001114931258717082 0 0)
(0.001017847475574068 0 0)
(0.0009208560170906143 0 0)
(0.0008241991147262574 0 0)
(0.0007281326771393645 0 0)
(0.0006331519542484314 0 0)
(0.0005398201575878093 0 0)
(0.0004489769925623173 0 0)
(0.0003615674181665069 0 0)
(0.0002788443440131064 0 0)
(0.0002021896564863163 0 0)
(0.0001333111770442293 0 0)
(7.405741695022403e-05 0 0)
(2.66048386584486e-05 0 0)
(-6.738646638868378e-06 0 0)
(-2.336594849592247e-05 0 0)
(-2.063451646483146e-05 0 0)
(4.062167908429524e-06 0 0)
(5.234960769633922e-05 0 0)
(0.0001233045261248633 0 0)
(0.0002110481766234463 0 0)
(0.0003064223212004592 0 0)
(0.0004032893953880109 0 0)
(0.0005002489474052429 0 0)
(0.0005971329913033496 0 0)
(0.0006939193673008842 0 0)
(0.0007903151200832176 0 0)
(0.0008860985744560445 0 0)
(0.0009807041840000821 0 0)
(0.001073611061508685 0 0)
(0.001163922040305558 0 0)
(0.001250760908618221 0 0)
(0.00133285714887774 0 0)
(0.001408951715736098 0 0)
(0.001477392354671582 0 0)
(0.001536547370312351 0 0)
(0.001584403181633833 0 0)
(0.001618980490612475 0 0)
(0.001637940162524065 0 0)
(0.001639030367054181 0 0)
(0.001619810949811738 0 0)
(0.001578506535060933 0 0)
(0.001514795694713786 0 0)
(0.001432354194632366 0 0)
(0.001339103000006984 0 0)
(0.001242762101612692 0 0)
(0.001146059446174804 0 0)
(0.001049421421397298 0 0)
(0.000952838595807159 0 0)
(0.0008565184888997116 0 0)
(0.0007606776377952261 0 0)
(0.000665753974215171 0 0)
(0.0005722545427359478 0 0)
(0.0004809430595407651 0 0)
(0.0003926916573233999 0 0)
(0.0003086625302209619 0 0)
(0.0002301556874113941 0 0)
(0.0001587865470645768 0 0)
(9.632862218680405e-05 0 0)
(4.488169817927418e-05 0 0)
(6.705228927631906e-06 0 0)
(-1.562857899633692e-05 0 0)
(-1.945406548555771e-05 0 0)
(-2.038835181234774e-06 0 0)
(3.868000162804412e-05 0 0)
(0.0001028247895142565 0 0)
(0.0001860674924777263 0 0)
(0.0002796260836550435 0 0)
(0.0003758710638154051 0 0)
(0.0004723570441026871 0 0)
(0.0005687904937082977 0 0)
(0.0006651607382141703 0 0)
(0.0007612194699943879 0 0)
(0.0008567802346015581 0 0)
(0.0009513351873593592 0 0)
(0.001044415551900082 0 0)
(0.001135196534565992 0 0)
(0.001222866875173 0 0)
(0.001306237853596305 0 0)
(0.001384120555414987 0 0)
(0.001454943527195915 0 0)
(0.001517136035485544 0 0)
(0.001568748509269428 0 0)
(0.001607839952494111 0 0)
(0.00163210652286514 0 0)
(0.00163928891750243 0 0)
(0.001626884452453404 0 0)
(0.001592854093186799 0 0)
(0.001536170756379458 0 0)
(0.001459133887979479 0 0)
(0.001368593229624307 0 0)
(0.001273128605709896 0 0)
(0.001176895094583609 0 0)
(0.001080700832329951 0 0)
(0.0009845329768504358 0 0)
(0.0008885677922502922 0 0)
(0.0007929854495634087 0 0)
(0.0006981709106698247 0 0)
(0.0006045794044957814 0 0)
(0.0005129043859780247 0 0)
(0.0004239496815039003 0 0)
(0.000338792325674576 0 0)
(0.0002586526911839421 0 0)
(0.0001850550402059028 0 0)
(0.0001196928451583713 0 0)
(6.458132197370538e-05 0 0)
(2.191566122977892e-05 0 0)
(-5.788298784880537e-06 0 0)
(-1.587771686035114e-05 0 0)
(-5.555744636406299e-06 0 0)
(2.755240199284204e-05 0 0)
(8.44175471088085e-05 0 0)
(0.0001622568453443899 0 0)
(0.0002532739401674032 0 0)
(0.0003487113249837677 0 0)
(0.0004447210206034357 0 0)
(0.0005407033831864493 0 0)
(0.0006366484537670572 0 0)
(0.0007323498337774887 0 0)
(0.0008276532310457391 0 0)
(0.0009221049632292456 0 0)
(0.001015284915175329 0 0)
(0.001106436226680204 0 0)
(0.001194808533177381 0 0)
(0.001279291147160224 0 0)
(0.001358762880751257 0 0)
(0.001431732656399251 0 0)
(0.001496693277629754 0 0)
(0.001551765895321588 0 0)
(0.001595058899999696 0 0)
(0.001624319339144511 0 0)
(0.001637303857878765 0 0)
(0.001631488958768737 0 0)
(0.001604659827730506 0 0)
(0.001555253913118684 0 0)
(0.001484345347527312 0 0)
(0.001397377403929623 0 0)
(0.001303164003723827 0 0)
(0.001207436490912793 0 0)
(0.00111168348828386 0 0)
(0.001015935470836114 0 0)
(0.0009203412007877479 0 0)
(0.0008250470182343768 0 0)
(0.0007303885177161745 0 0)
(0.0006367734022238726 0 0)
(0.0005448289480231669 0 0)
(0.0004552954739610409 0 0)
(0.0003691688478746232 0 0)
(0.0002875933687337638 0 0)
(0.0002120031332368728 0 0)
(0.0001440101565666831 0 0)
(8.553979609756693e-05 0 0)
(3.871357835314395e-05 0 0)
(5.975120779771945e-06 0 0)
(-1.00612062988764e-05 0 0)
(-6.582209556333547e-06 0 0)
(1.899488296619371e-05 0 0)
(6.829085519763958e-05 0 0)
(0.000139926377130079 0 0)
(0.0002275283160883404 0 0)
(0.0003218272663925271 0 0)
(0.0004173360726243323 0 0)
(0.000512868324608055 0 0)
(0.0006083809317556918 0 0)
(0.0007037070896507076 0 0)
(0.00079872179252754 0 0)
(0.0008930221418803056 0 0)
(0.0009862340783630995 0 0)
(0.001077664354784808 0 0)
(0.001166620772351658 0 0)
(0.001252066587647908 0 0)
(0.001332946937147995 0 0)
(0.001407848921380316 0 0)
(0.001475331169121762 0 0)
(0.001533588422911938 0 0)
(0.001580786869010287 0 0)
(0.001614733722779163 0 0)
(0.001633219694381585 0 0)
(0.001633730566019503 0 0)
(0.001613946094530978 0 0)
(0.001571917204586822 0 0)
(0.001507701566888329 0 0)
(0.001425209553478099 0 0)
(0.001332806928168578 0 0)
(0.001237681515619174 0 0)
(0.001142368723472136 0 0)
(0.00104704356473652 0 0)
(0.0009518339770874513 0 0)
(0.00085685381997269 0 0)
(0.0007623936030580269 0 0)
(0.0006688163816301972 0 0)
(0.0005766875476719175 0 0)
(0.0004866875144518894 0 0)
(0.0003997351976723255 0 0)
(0.0003169019266423749 0 0)
(0.0002395335324365691 0 0)
(0.0001691605909914648 0 0)
(0.0001076158939605387 0 0)
(5.694170066717698e-05 0 0)
(1.949816655371366e-05 0 0)
(-2.156677612717803e-06 0 0)
(-5.229854769600592e-06 0 0)
(1.298780677835922e-05 0 0)
(5.458821800968994e-05 0 0)
(0.0001193780778731884 0 0)
(0.0002026190418289283 0 0)
(0.0002952644861162268 0 0)
(0.0003901991343759632 0 0)
(0.0004852827108204902 0 0)
(0.0005803571774881426 0 0)
(0.000675293471810684 0 0)
(0.0007699912596368482 0 0)
(0.0008640970897917087 0 0)
(0.0009572788956022138 0 0)
(0.0010489049624841 0 0)
(0.001138337158386884 0 0)
(0.001224610870229496 0 0)
(0.001306734190584485 0 0)
(0.001383371926901671 0 0)
(0.00145314777966192 0 0)
(0.001514333348365514 0 0)
(0.00156515608759074 0 0)
(0.001603491327262337 0 0)
(0.001627174851970632 0 0)
(0.001633725604423949 0 0)
(0.00162076921716611 0 0)
(0.001586094233756771 0 0)
(0.001528960255750898 0 0)
(0.001451800907240361 0 0)
(0.001361945844362781 0 0)
(0.001267623172636183 0 0)
(0.001172756395323231 0 0)
(0.001077856177422748 0 0)
(0.0009830423246668285 0 0)
(0.0008883986636580276 0 0)
(0.0007941740348077731 0 0)
(0.0007006900337482592 0 0)
(0.0006084535109412417 0 0)
(0.0005180885831918107 0 0)
(0.0004304409404598424 0 0)
(0.0003465119266466455 0 0)
(0.0002675616172824862 0 0)
(0.0001950397514224323 0 0)
(0.0001306863109812193 0 0)
(7.646024536267851e-05 0 0)
(3.46318041314816e-05 0 0)
(7.689035624845549e-06 0 0)
(-1.620538640937531e-06 0 0)
(9.474627209458466e-06 0 0)
(4.339040399603368e-05 0 0)
(0.0001008761597295323 0 0)
(0.0001788312243989044 0 0)
(0.0002691143971282144 0 0)
(0.0003633129654826122 0 0)
(0.000457943488880381 0 0)
(0.0005525768264844873 0 0)
(0.0006471108431633593 0 0)
(0.0007414677276141428 0 0)
(0.0008353398315862633 0 0)
(0.0009284357512346069 0 0)
(0.001020181015736623 0 0)
(0.001109990276125863 0 0)
(0.001196966995587404 0 0)
(0.001280181337770495 0 0)
(0.001358372775258339 0 0)
(0.001430231131407225 0 0)
(0.001494104561616256 0 0)
(0.001548285681701046 0 0)
(0.001590721174967758 0 0)
(0.001619301576501576 0 0)
(0.001631594133649045 0 0)
(0.001625209691017575 0 0)
(0.001597769585627605 0 0)
(0.001547938551588649 0 0)
(0.00147684814366597 0 0)
(0.001390406590130541 0 0)
(0.001297237324579057 0 0)
(0.00120284741700334 0 0)
(0.001108372577716211 0 0)
(0.001013963938713142 0 0)
(0.0009196763804952125 0 0)
(0.0008257206319732451 0 0)
(0.0007323784183459687 0 0)
(0.0006401011210916394 0 0)
(0.0005494597144541816 0 0)
(0.0004612315279360663 0 0)
(0.0003763530553727625 0 0)
(0.0002960040427277895 0 0)
(0.0002215568035185211 0 0)
(0.0001546593802081002 0 0)
(9.718316445165354e-05 0 0)
(5.129364778723717e-05 0 0)
(1.938653556339542e-05 0 0)
(4.153654154259167e-06 0 0)
(8.360811722433719e-06 0 0)
(3.461949607496312e-05 0 0)
(8.449162038012738e-05 0 0)
(0.0001562921933951285 0 0)
(0.0002432610216442807 0 0)
(0.0003364315299069821 0 0)
(0.0004306123314803077 0 0)
(0.0005249636241923637 0 0)
(0.0006192905587924835 0 0)
(0.0007135434266529483 0 0)
(0.0008074530050710805 0 0)
(0.0009007700609561766 0 0)
(0.0009929597713044659 0 0)
(0.001083506769455511 0 0)
(0.001171562075992379 0 0)
(0.001256271295670393 0 0)
(0.001336412030962127 0 0)
(0.001410661857751468 0 0)
(0.001477430319879161 0 0)
(0.001535049040953064 0 0)
(0.001581598024168404 0 0)
(0.001614987428058483 0 0)
(0.001633032644196146 0 0)
(0.001633656798679894 0 0)
(0.001614195262342364 0 0)
(0.001573541111265061 0 0)
(0.001510529349820779 0 0)
(0.001430185122895295 0 0)
(0.001341025391029359 0 0)
(0.001248655411354748 0 0)
(0.001154078004393495 0 0)
(0.001057516972337955 0 0)
(0.0009584748014270366 0 0)
(0.0008569637799537264 0 0)
(0.000752838954225264 0 0)
(0.0006466722449646469 0 0)
(0.0005385703281634476 0 0)
(0.000429431959504547 0 0)
(0.0003205808670747901 0 0)
(0.0002120961532134546 0 0)
(0.0001064222914450504 0 0)
(6.004643055813766e-06 0 0)
(-8.896681788106668e-05 0 0)
(-0.0001745651125450818 0 0)
(-0.0002472384251952043 0 0)
(-0.0003028948680881867 0 0)
(-0.0003372438932461326 0 0)
(-0.0003466993221258588 0 0)
(-0.0003296823961108561 0 0)
(-0.0002848036709977968 0 0)
(-0.0002198650358859646 0 0)
(-0.0001418197833281845 0 0)
(-5.81616921258549e-05 0 0)
(2.822972882416348e-05 0 0)
(0.0001156946255712455 0 0)
(0.0002040791918817086 0 0)
(0.0002929219845886808 0 0)
(0.0003791650904187349 0 0)
(0.0004646316183923346 0 0)
(0.000549529516262342 0 0)
(0.0006299597830268976 0 0)
(0.0007062814717810464 0 0)
(0.0007794907766367326 0 0)
(0.0008484077500206731 0 0)
(0.0009126072494634764 0 0)
(0.000967204765701275 0 0)
(0.001012197068931826 0 0)
(0.001043759996446948 0 0)
(0.001060361955810973 0 0)
(0.001060184914265124 0 0)
(0.001041722055197493 0 0)
(0.0009984047168097978 0 0)
(0.0009366091347495468 0 0)
(0.0008555018843802043 0 0)
(0.0007615552891772809 0 0)
(0.0006621806238966092 0 0)
(0.0005602806101205266 0 0)
(0.00045691380899806 0 0)
(0.0003509774232195471 0 0)
(0.0002474938453583626 0 0)
(0.0001373970152946318 0 0)
(2.719369194358674e-05 0 0)
(-8.555584779351282e-05 0 0)
(-0.0001972271155456068 0 0)
(-0.0003156347824111132 0 0)
(-0.0004275264982282466 0 0)
(-0.0005396355245372866 0 0)
(-0.0006435242566861944 0 0)
(-0.0007428894270668349 0 0)
(-0.0008345930736834849 0 0)
(-0.0009157966528483007 0 0)
(-0.000982869593372506 0 0)
(-0.001031448597956645 0 0)
(-0.001055077931753788 0 0)
(-0.001055891174441509 0 0)
(-0.001029297554462513 0 0)
(-0.000978530182738483 0 0)
(-0.0009130170957217812 0 0)
(-0.000838115398726929 0 0)
(-0.0007601519250903154 0 0)
(-0.0006798560500922947 0 0)
(-0.0006006705467031822 0 0)
(-0.000514657882581101 0 0)
(-0.0004362987922841919 0 0)
(-0.0003571401296818883 0 0)
(-0.0002810161202103854 0 0)
(-0.0002032796252926634 0 0)
(-0.0001390553333174508 0 0)
(-7.299821898652521e-05 0 0)
(-1.13094149854453e-05 0 0)
(4.729246232578003e-05 0 0)
(0.0001002854661867267 0 0)
(0.0001406373609216372 0 0)
(0.0001714186233278118 0 0)
(0.0001850728955865079 0 0)
(0.0001839984847785764 0 0)
(0.0001634929598597461 0 0)
(0.0001453101016898596 0 0)
(1.689213987735003e-05 0 0)
)
;

boundaryField
{
    inlet
    {
        type            calculated;
        value           uniform (-3.678929879652842e-05 0 0);
    }
    outlet
    {
        type            calculated;
        value           uniform (1.689213987735003e-05 0 0);
    }
    frontAndBack
    {
        type            empty;
    }
}


// ************************************************************************* //
