/*--------------------------------*- C++ -*----------------------------------*\
| =========                 |                                                 |
| \\      /  F ield         | OpenFOAM: The Open Source CFD Toolbox           |
|  \\    /   O peration     | Version:  v2012                                 |
|   \\  /    A nd           | Website:  www.openfoam.com                      |
|    \\/     M anipulation  |                                                 |
\*---------------------------------------------------------------------------*/
FoamFile
{
    version     2.0;
    format      ascii;
    class       volScalarField;
    location    "0.013";
    object      p;
}
// * * * * * * * * * * * * * * * * * * * * * * * * * * * * * * * * * * * * * //

dimensions      [1 -1 -2 0 0 0 0];


internalField   nonuniform List<scalar> 
1000
(
101310.9478107562
101313.5951213056
101306.8444542306
101301.5303711231
101295.6815424845
101290.4436812135
101285.9434206533
101282.0949348772
101278.7953379976
101276.5695763683
101275.9146359433
101275.9361135882
101276.3188667099
101277.3505070484
101279.3342581828
101282.3382053892
101286.2532593477
101290.9062789777
101296.150365542
101301.8817939935
101308.0160978831
101314.4631514844
101321.1165737592
101327.8543605736
101334.5441797171
101341.0517179173
101347.2568545558
101353.0824377235
101358.5203625042
101363.593569384
101368.1559926592
101371.5576839929
101373.0229882091
101373.1890595757
101373.1343721458
101372.8608727988
101372.1203789245
101370.6624183448
101368.2833924258
101364.8898705009
101360.5237823703
101355.337907483
101349.5343396681
101343.3031200969
101336.7925136014
101330.1150268767
101323.3704082023
101316.6632849837
101310.1019427332
101303.7761097049
101297.7276575108
101291.9532738236
101286.5054136973
101281.7543777338
101278.5874232906
101277.5020971619
101277.4261385454
101277.4755434733
101277.728748643
101278.3708856823
101279.6195874911
101281.669746789
101284.6574628953
101288.6248290658
101293.5079447209
101299.1529519027
101305.3556516294
101311.9080746898
101318.6321424818
101325.3903894841
101332.0807105318
101338.6316087874
101345.0059655104
101351.2008048204
101357.2121332024
101362.9166214988
101367.8255841996
101370.9838744037
101372.0163812537
101372.0896018565
101372.0382537634
101371.832049765
101371.2890655307
101370.2293762202
101368.4677387797
101365.8524693075
101362.2934429749
101357.7852366887
101352.4131109732
101346.338631854
101339.7695242049
101332.922665318
101325.9893316761
101319.1108166549
101312.369357803
101305.7933580319
101299.3762491691
101293.1290895092
101287.2249867872
101282.2661838716
101279.2669530508
101278.3943714996
101278.3495520494
101278.3879880522
101278.5935345961
101279.097859341
101280.0750030096
101281.6916229704
101284.0937122388
101287.381255211
101291.5882324983
101296.6697459877
101302.5031721492
101308.9067242191
101315.6710397513
101322.593925061
101329.510562208
101336.3154342185
101342.9696324967
101349.4806030173
101355.8360228159
101361.8604317227
101366.9732425285
101370.1763683404
101371.1993030261
101371.2764693143
101371.234482109
101371.076285321
101370.650641152
101369.813066919
101368.4036253539
101366.2752345712
101363.3112596242
101359.4463683889
101354.6819330193
101349.0925247004
101342.821042598
101336.0600734973
101329.0195950252
101321.8886897163
101314.8051568965
101307.8441481802
101301.0331654154
101294.416262534
101288.210940071
101283.080829609
101280.0354647331
101279.15084804
101279.0964827707
101279.1113326196
101279.2605994104
101279.6551202652
101280.4443752501
101281.7765670002
101283.7907653033
101286.5980579488
101290.2655000486
101294.8018651721
101300.1497777817
101306.1883416958
101312.7479658121
101319.6364398609
101326.6712076509
101333.709790312
101340.6672256415
101347.5048944254
101354.1815166189
101360.5015453922
101365.8450178401
101369.265705041
101370.4477858348
101370.6174805494
101370.6659859531
101370.5694304589
101370.2554148488
101369.5824980729
101368.4084365009
101366.5975994126
101364.035040846
101360.6412140581
101356.3850694605
101351.2930379497
101345.4505884128
101338.994090628
101332.092874694
101324.9234853286
101317.6382719639
101310.3431458143
101303.1101687325
101296.0376448134
101289.4264182966
101283.9395212814
101280.603466413
101279.5005310537
101279.2382890223
101279.1057215917
101279.1776191032
101279.4679127603
101280.1160825457
101281.2654632845
101283.0432253736
101285.5542787257
101288.8737654771
101293.0347633962
101298.0184421998
101303.7515849147
101310.1125685341
101316.9458096615
101324.0844352819
101331.3760090966
101338.7018026725
101345.9813206558
101353.1172047825
101359.8281960091
101365.5037779512
101369.290810406
101370.8353963459
101371.1691817564
101371.2927785955
101371.2292866974
101370.9594821795
101370.3709613954
101369.3436702294
101367.755711226
101365.4902879913
101362.4501512397
101358.5749759389
101353.8531340941
101348.3257466902
101342.0841822093
101335.2601984391
101328.0073092435
101320.4792536648
101312.8158133476
101305.1414450063
101297.6162800459
101290.6011549177
101284.8049250267
101281.1079890163
101279.6853619516
101279.3771566814
101279.2499920881
101279.3164876898
101279.5882834475
101280.1726376144
101281.1806038145
101282.7240545657
101284.9104428314
101287.8303804674
101291.5428284532
101296.0639387992
101301.3616681392
101307.3569616827
101313.9324339326
101320.9487371099
101328.2636876149
101335.7438028447
101343.2662906796
101350.6914794187
101357.7333013976
101363.8006821149
101368.0595824251
101370.000530589
101370.4493327161
101370.5891126851
101370.5737233316
101370.3721380361
101369.889210828
101369.0183322008
101367.6538008284
101365.6900882847
101363.0291372353
101359.5939545282
101355.3414152521
101350.2712235161
101344.4297512328
101337.9067812822
101330.8239056027
101323.3195194821
101315.5401337903
101307.6390651906
101299.8037926678
101292.3936927665
101286.120432558
101281.9158397559
101280.1423002752
101279.7562623823
101279.6281978366
101279.6643304545
101279.8865585726
101280.3889661199
101281.2705532034
101282.630761378
101284.5675474048
101287.168925297
101290.5026119751
101294.6072059937
101299.4847635902
101305.0961149265
101311.3620191058
101318.1724377441
101325.400804644
101332.9133957291
101340.5711218962
101348.218633144
101355.5863521425
101362.0991699057
101366.8953429618
101369.3255248969
101369.9567613005
101370.0966628388
101370.1212391914
101369.9747839252
101369.5839727547
101368.8478877066
101367.6697092961
101365.9502403097
101363.5947170832
101360.5229326217
101356.6777727874
101352.0324481918
101346.5969661075
101340.4212154304
101333.5914655924
101326.2217970818
101318.4487698109
101310.4314269392
101302.3659073465
101294.5922587802
101287.8067959754
101283.0057581912
101280.7518847998
101280.2131929685
101280.0863255473
101280.0904344801
101280.2631377266
101280.6849519037
101281.4470295217
101282.6416663028
101284.3614479524
101286.6915243381
101289.7017514227
101293.4411912645
101297.9322698154
101303.1646025236
101309.0918308542
101315.6346795827
101322.689479287
101330.1348456414
101337.8318384503
101345.6198144456
101353.2526086655
101360.1977620955
101365.5736867383
101368.6034768041
101369.5292990997
101369.678782804
101369.7361078893
101369.6356833769
101369.3268098174
101368.7108192948
101367.6971193934
101366.1914511526
101364.1008330179
101361.3434653562
101357.8552877361
101353.5945649732
101348.5474430801
101342.7333355509
101336.2065554688
101329.0530331266
101321.3883358531
101313.3614337231
101305.1652376757
101297.1081484424
101289.8321104884
101284.375254811
101281.5061917034
101280.6977839498
101280.5715262367
101280.5418973545
101280.6720135411
101281.0193960147
101281.671964668
101282.7160432175
101284.2409603602
101286.3307439159
101289.0564648094
101292.4725213095
101296.613149534
101301.4871169584
101307.0729312398
101313.3178596038
101320.1419756663
101327.4425684641
101335.092323098
101342.9339781307
101350.7450825557
101358.0653991528
101364.0301317962
101367.7447786835
101369.10870654
101369.3208936284
101369.3906548919
101369.3305994257
101369.0921689418
101368.5820739117
101367.715729859
101366.4027369153
101364.5498578301
101362.0729598826
101358.9038853682
101354.9924367138
101350.3094982259
101344.8526153959
101338.6504232005
101331.7628176407
101324.281120225
101316.3351818791
101308.1046631093
101299.8622007127
101292.164431418
101286.0381138332
101282.4531952453
101281.2432305086
101281.0666347917
101281.02022247
101281.1125848152
101281.3931912383
101281.9461523008
101282.8523397698
101284.1988625913
101286.0702072902
101288.5389338006
101291.6626104747
101295.4827200117
101300.0209532354
101305.2739258534
101311.2098847108
101317.7700146593
101324.8714231093
101332.403575814
101340.2201899446
101348.1222378394
101355.7337528737
101362.2577878974
101366.6875896311
101368.6372991875
101369.0060579499
101369.0720281136
101369.0426590822
101368.8641047875
101368.4475536378
101367.7130019202
101366.5734861382
101364.9361115048
101362.7147436144
101359.8376248223
101356.2483497302
101351.9073481001
101346.7966253793
101340.925135346
101334.331237324
101327.0838155997
101319.290343081
101311.1108576086
101302.7854153118
101294.7753112766
101288.0169719404
101283.6412088758
101281.8738731662
101281.5625326123
101281.5112348033
101281.5726786215
101281.79599402
101282.26169867
101283.044662808
101284.2288933655
101285.8997281194
101288.1319813758
101290.9862039524
101294.5090778211
101298.7313004886
101303.6627325423
101309.2882037676
101315.5667470168
101322.4332229549
101329.795122044
101337.5232023951
101345.4386641624
101353.2353917302
101360.2391906776
101365.3925576148
101368.0412291385
101368.7145187985
101368.7724333312
101368.7691612121
101368.6382073023
101368.2999070015
101367.6791758539
101366.6948908522
101365.255430342
101363.2712262361
101360.6655101766
101357.3766208483
101353.3579514288
101348.5806495649
101343.0387194979
101336.7530049246
101329.7731930875
101322.1850819404
101314.1254715549
101305.8031741166
101297.5905862065
101290.284315129
101285.1021149779
101282.6434587536
101282.0654551335
101282.0114757981
101282.047301216
101282.222040409
101282.6100029683
101283.2823519316
101284.319260187
101285.80625714
101287.8207177549
101290.4261081614
101293.6728666784
101297.5980335017
101302.2213707539
101307.5407764681
101313.5299377464
101320.1389607058
101327.292698884
101334.8806727858
101342.7427965165
101350.6283998957
101358.0066504184
101363.8566509755
101367.2714866707
101368.4051966742
101368.5084134145
101368.5160319688
101368.4190654593
101368.1472763121
101367.6267501022
101366.7818916193
101365.5222391301
101363.7560306854
101361.4026682488
101358.395948586
101354.6831803607
101350.2268430502
101345.0091862087
101339.0368782508
101332.3437592924
101324.9958879476
101317.1067076487
101308.8579952915
101300.5533191427
101292.8305894741
101286.8661823942
101283.608068116
101282.6058672146
101282.5125634073
101282.5304004719
101282.665499179
101282.9895263394
101283.5665245277
101284.4712444475
101285.7889797659
101287.6003559983
101289.9723327513
101292.9587192391
101296.6015310957
101300.9283547557
101305.9476477875
101311.6453055384
101317.9844518031
101324.9050169293
101332.3139223732
101340.0708277813
101347.9665892269
101355.5945942743
101362.0625398465
101366.273175188
101368.0174581926
101368.2960300723
101368.2851214563
101368.2141781801
101367.995824225
101367.5592393128
101366.8343863668
101365.7354378458
101364.1700804533
101362.0534783372
101359.3138599061
101355.8925900134
101351.7452144946
101346.8448670028
101341.1867128473
101334.7911709541
101327.7075838993
101320.0280218679
101311.9075992226
101303.5966726996
101295.5923885197
101288.9323674907
101284.8157619384
101283.2424432536
101283.0070375666
101283.0241102364
101283.1260670362
101283.3949836795
101283.8887122844
101284.676341701
101285.8404796756
101287.4637822479
101289.6168383883
101292.3571017559
101295.7309306715
101299.7721179307
101304.4977194495
101309.9042937062
101315.9664751659
101322.6365301461
101329.8377445156
101337.4506414462
101345.2953454763
101353.0534413051
101360.0161963614
101365.029019629
101367.5063893718
101368.0794961339
101368.0837294234
101368.0283538182
101367.8468362202
101367.4793990159
101366.8567947667
101365.900063968
101364.5172560498
101362.6198557372
101360.1316411029
101356.9889865957
101353.1408977425
101348.5520953594
101343.2074777198
101337.1158820865
101330.3131871532
101322.8716786807
101314.9206007426
101306.6733409657
101298.5216067169
101291.3015646359
101286.300888005
101284.0264724715
101283.5188734909
101283.5193734788
101283.5945387966
101283.818301748
101284.2427136726
101284.9294620606
101285.9562118928
101287.4068377119
101289.3557759434
101291.8640450669
101294.9815560613
101298.7471894462
101303.1854633745
101308.3024855287
101314.083292517
101320.4913964236
101327.4653871824
101334.9041432172
101342.6490379956
101350.4451374719
101357.7616054885
101363.5241361863
101366.7837076945
101367.8306579855
101367.9238542584
101367.86130262
101367.7106751797
101367.3965864809
101366.8582290444
101366.0231862111
101364.8024267827
101363.1063822412
101360.8550446906
101357.97918302
101354.4209713116
101350.1375507964
101345.1050890952
101339.3222382648
101332.8128605547
101325.6320134415
101317.8856548287
101309.7567714508
101301.5552036708
101293.9248696646
101288.0910093913
101285.0108777388
101284.0781679609
101284.0074422824
101284.0753004198
101284.2537348542
101284.6191023526
101285.2197136993
101286.1258928615
101287.4208541473
101289.1819608298
101291.4734972072
101294.3487029959
101297.8508686226
101302.0106217046
101306.8419618233
101312.3392912696
101318.476457639
101325.2046238892
101332.4402445028
101340.0476919069
101347.8173048998
101355.3433314718
101361.7352794341
101365.8301029813
101367.5142026534
101367.7669861769
101367.7163661969
101367.5903168939
101367.3187739635
101366.8483565654
101366.1154048552
101365.0380035875
101363.5253650255
101361.4935705754
101358.8692965068
101355.5895792233
101351.6045005329
101346.8815917516
101341.4096138537
101335.20129918
101328.2974424923
101320.7823095213
101312.8095501943
101304.6349577807
101296.758059714
101290.2097727602
101286.226879883
101284.7241425917
101284.4918554903
101284.5477746331
101284.6907376858
101285.0063720206
101285.5343093419
101286.3362744072
101287.4910280099
101289.0782589386
101291.1665237385
101293.8130113824
101297.0648165108
101300.9570048185
101305.5095445186
101310.72476351
101316.5855721432
101323.0541406423
101330.0646844081
101337.5046244467
101345.1917366317
101352.8084473699
101359.6802935756
101364.6293236811
101367.0312953379
101367.6131386282
101367.6168097971
101367.5001191924
101367.2609155757
101366.8439028204
101366.1936713224
101365.2372743659
101363.8867048632
101362.0562452841
101359.6684915726
101356.6543128026
101352.9562032266
101348.5340853448
101343.3690202762
101337.4651009251
101330.8518397126
101323.5933969517
101315.8143244228
101307.7317594294
101299.7342154316
101292.6302688917
101287.7186380999
101285.5271573838
101285.010676964
101285.0136682392
101285.1346209515
101285.4050728231
101285.8738162691
101286.5887056783
101287.620846245
101289.0494371018
101290.9465661436
101293.3742582062
101296.3848351316
101300.0186939936
101304.3011363279
101309.2401855277
101314.8252688849
101321.0270334262
101327.7937852704
101335.0341738593
101342.5945457264
101350.2232553349
101357.4087198001
101363.1202015764
101366.3334348997
101367.4328585364
101367.5319361865
101367.4328896603
101367.2292734442
101366.8515641224
101366.2617978191
101365.4015090101
101364.190477937
101362.5424247652
101360.3755846969
101357.6148214629
101354.1951442448
101350.0679643551
101345.2060875068
101339.6060965539
101333.2891829866
101326.3048652997
101318.7519841588
101310.8119164102
101302.7934817492
101295.3179642958
101289.5621631217
101286.5300363517
101285.5770142055
101285.4721518111
101285.5741619423
101285.7973783576
101286.2197550992
101286.8680784762
101287.801225754
101289.0921706208
101290.8131710108
101293.0309948919
101295.8061521398
101299.1879809907
101303.2088362979
101307.8816928169
101313.2000857704
101319.1387742842
101325.6537314251
101332.6720727923
101340.0687322179
101347.6366272645
101354.98369347
101361.2926779709
101365.40767199
101367.1059589045
101367.4435481073
101367.3996516912
101367.2250194941
101366.8846611038
101366.3414829284
101365.55140683
101364.4485440544
101362.9553230458
101360.9919527836
101358.4778356071
101355.3361400666
101351.5042444552
101346.9434091868
101341.6424266357
101335.6172927075
101328.9111876346
101321.6051161293
101313.846661906
101305.8871876489
101298.2039407234
101291.7614795686
101287.7772259584
101286.2687065158
101285.9726526675
101285.9924266838
101286.1755357639
101286.5474718442
101287.1423858136
101288.0032814008
101289.1898359373
101290.7652149097
101292.7925567837
101295.3370256098
101298.461094612
101302.2131925259
101306.6185759695
101311.677073928
101317.3649182371
101323.6381571265
101330.4310784343
101337.6374754878
101345.0862894228
101352.4837997591
101359.205958462
101364.1558080039
101366.5989650202
101367.2994591408
101367.3718081817
101367.2526695728
101366.9718431946
101366.4713881893
101365.7275498308
101364.6947660541
101363.3130883022
101361.5140238723
101359.2213269519
101356.3525827715
101352.8279858978
101348.5845435546
101343.5898597288
101337.8500000862
101331.4081567332
101324.3414634179
101316.779981624
101308.9371006945
101301.174209067
101294.2443540441
101289.3686415626
101287.1363812653
101286.5510155876
101286.4585172576
101286.5609897768
101286.8504521991
101287.3801048379
101288.1840684867
101289.3040407982
101290.7832769468
101292.6664779917
101295.0076911467
101297.8737293827
101301.3342609152
101305.4433605925
101310.2236549325
101315.6606094842
101321.707194065
101328.2933998396
101335.3198678464
101342.6340567447
101350.001898737
101356.9594300158
101362.5652714779
101365.8677442309
101367.041178379
101367.2433285614
101367.2495458174
101367.0733811137
101366.6698677132
101365.9917541198
101365.001525136
101363.6657344547
101361.9520421231
101359.8166859969
101357.1916539084
101353.9858751722
101350.1027641559
101345.4657519583
101340.0420542497
101333.8602263813
101327.0073807693
101319.6218556192
101311.906702439
101304.1496793166
101296.9113897932
101291.2914011766
101288.202614648
101287.201120835
101287.046598451
101287.0515365735
101287.2247690595
101287.6183559201
101288.2931756575
101289.3153845671
101290.7364218737
101292.5792906644
101294.8473338733
101297.5478497832
101300.7146128832
101304.4234460166
101308.7894206279
101313.9162974832
101319.8061936362
101326.2915703445
101333.2041192335
101340.1571964919
101348.1526711264
)
;

boundaryField
{
    inlet
    {
        type            uniformFixedValue;
        uniformValue    sine;
        uniformValueCoeffs
        {
            frequency       constant 3000;
            scale           constant 50;
            level           constant 101325;
        }
        value           uniform 101323.6421297957;
    }
    outlet
    {
        type            pressureOutletNSCBC;
        pInf            101325;
        gamma           1.4;
        etaAc           1;
        fieldInf        1;
        lInf            2.25;
        value           uniform 101351.8640172143;
    }
    frontAndBack
    {
        type            empty;
    }
}


// ************************************************************************* //
