/*--------------------------------*- C++ -*----------------------------------*\
| =========                 |                                                 |
| \\      /  F ield         | OpenFOAM: The Open Source CFD Toolbox           |
|  \\    /   O peration     | Version:  v2012                                 |
|   \\  /    A nd           | Website:  www.openfoam.com                      |
|    \\/     M anipulation  |                                                 |
\*---------------------------------------------------------------------------*/
FoamFile
{
    version     2.0;
    format      ascii;
    class       volScalarField;
    location    "0.013";
    object      pMean;
}
// * * * * * * * * * * * * * * * * * * * * * * * * * * * * * * * * * * * * * //

dimensions      [1 -1 -2 0 0 0 0];


internalField   nonuniform List<scalar> 
1000
(
101325.0394593873
101325.0028953024
101325.0139080534
101325.0243695962
101325.0386553783
101325.0559312663
101325.0744543556
101325.0973931337
101325.1217177613
101325.1483158913
101325.175646545
101325.2028249893
101325.2299534766
101325.2566343273
101325.2825879249
101325.307189278
101325.3299444432
101325.3503673725
101325.3680586548
101325.3827850464
101325.3942034008
101325.4021985326
101325.4065335582
101325.4072028295
101325.4041172346
101325.397398503
101325.3871146611
101325.3735141608
101325.3567489772
101325.3370739158
101325.3146544142
101325.2899286824
101325.2637110537
101325.2370586469
101325.2103825872
101325.1838048851
101325.1574773207
101325.1317354391
101325.1069968601
101325.0838110417
101325.0627098964
101325.0442168468
101325.0287164276
101325.0165319655
101325.007843946
101325.0028028691
101325.0014645897
101325.0038620552
101325.0099333017
101325.0195929352
101325.0326820188
101325.049069945
101325.0685889618
101325.0910173073
101325.1157735255
101325.1418189976
101325.1681619456
101325.1945052515
101325.2207569013
101325.2467953819
101325.2723216394
101325.2969930915
101325.3202979033
101325.3417517562
101325.3607816567
101325.3769618472
101325.3898715511
101325.3992951567
101325.4050330787
101325.4070656054
101325.4053488209
101325.3999852769
101325.3910107985
101325.378573947
101325.362719261
101325.3436152462
101325.3214580112
101325.296943304
101325.2711486184
101325.245098175
101325.2190260616
101325.1930403674
101325.1672328151
101325.1418569246
101325.1172112532
101325.0937467383
101325.0719262527
101325.0523028278
101325.0353513935
101325.021545567
101325.0111939755
101325.0045541861
101325.0017047793
101325.0026957289
101325.0074450578
101325.0159038196
101325.0279509136
101325.0435393767
101325.0625172507
101325.0846211019
101325.1090628703
101325.1346778004
101325.1605064073
101325.1863477093
101325.2120972436
101325.2376993101
101325.2628795002
101325.2874071897
101325.3108309489
101325.332758718
101325.3526259126
101325.3700028089
101325.3843626387
101325.3954027097
101325.4027801978
101325.4064184181
101325.4061890835
101325.4022002013
101325.3944399456
101325.3830672343
101325.3680825421
101325.3496699319
101325.3280409051
101325.3039875312
101325.278640864
101325.2530466237
101325.2274172396
101325.2018688841
101325.1764447299
101325.1513747074
101325.1268713969
101325.1033371749
101325.0811427193
101325.0608188174
101325.04280895
101325.027645385
101325.0157018093
101325.0073574733
101325.0027897586
101325.0021586718
101325.0054360917
101325.012626843
101325.0236209974
101325.0383802783
101325.0567162167
101325.0783412902
101325.1023556282
101325.1275737923
101325.1529945409
101325.178437335
101325.2037830355
101325.2290179672
101325.2538889101
101325.2782377809
101325.301659774
101325.3238451947
101325.3442606778
101325.3625245075
101325.3780804694
101325.3905801558
101325.3995905586
101325.4049271569
101325.4063551403
101325.4038940279
101325.3974618023
101325.3872315263
101325.3731555694
101325.3554450713
101325.3343794114
101325.3108085178
101325.2858525097
101325.2606355112
101325.2354114526
101325.2102658571
101325.1852334903
101325.1605261053
101325.1362538619
101325.1127816181
101325.090408706
101325.0696400039
101325.0508001331
101325.0345206901
101325.0211747148
101325.0112405899
101325.0049369184
101325.0026372241
101325.0043203941
101325.0101216979
101325.019915662
101325.0337536339
101325.0513398171
101325.0723117846
101325.0958193024
101325.1204898623
101325.1453203985
101325.1701495157
101325.1948952365
101325.2194504739
101325.2436719298
101325.2674878487
101325.2905131771
101325.3125316209
101325.3331135741
101325.3518697983
101325.3682171616
101325.3819026149
101325.392367639
101325.39939588
101325.4026383169
101325.402021312
101325.3973938226
101325.3887903656
101325.3762635731
101325.3599779234
101325.3401440554
101325.3177534482
101325.2938017522
101325.2694789864
101325.2451358158
101325.2208338651
101325.196692931
101325.1728385009
101325.1493554249
101325.1265444796
101325.1046146667
101325.0840030242
101325.0650929526
101325.0483090352
101325.0341368398
101325.0230779181
101325.0153594672
101325.0114801567
101325.0114962217
101325.0156730829
101325.0239151936
101325.0363763006
101325.0528146371
101325.0727951318
101325.0954777719
101325.1195987161
101325.1440146498
101325.1684474558
101325.1928010323
101325.2169910451
101325.2408773391
101325.2643691087
101325.2872128225
101325.3091511964
101325.329796139
101325.348925681
101325.3658461873
101325.3803522581
101325.391916237
101325.4001908711
101325.404870276
101325.4057139332
101325.402508742
101325.395264993
101325.3838884723
101325.3686164599
101325.3496380208
101325.3277791999
101325.3041410668
101325.2799392542
101325.2556792828
101325.2314678095
101325.2073985246
101325.1836121987
101325.1601360595
101325.1373104375
101325.1152431617
101325.0943369268
101325.0749438114
101325.0574585654
101325.0422795015
101325.0299981521
101325.02085264
101325.0153728797
101325.0137130932
101325.01622727
101325.022922137
101325.0339014897
101325.0490930517
101325.0681259701
101325.0900534769
101325.1137774884
101325.1379189844
101325.1621022116
101325.1861925966
101325.2102007373
101325.2338892276
101325.2572288601
101325.2799722418
101325.3019336602
101325.3227355915
101325.34214203
101325.3596643237
101325.3749270451
101325.3875100599
101325.3970350347
101325.4031226206
101325.4054719269
101325.4038357385
101325.3981385685
101325.3881799755
101325.3741845391
101325.3563241348
101325.3352325133
101325.3120884841
101325.2881397956
101325.2640728237
101325.2400350093
101325.2161225665
101325.1924695154
101325.1691024437
101325.1462919452
101325.1242101852
101325.1031495256
101325.0833845669
101325.0654241366
101325.04948209
101325.0361924005
101325.0258834648
101325.0189596597
101325.0157945585
101325.016714653
101325.021839992
101325.0313429986
101325.0451599537
101325.0631083521
101325.084261802
101325.1075171278
101325.1314441589
101325.1554573217
101325.1793491018
101325.2031971659
101325.226786744
101325.2500406436
101325.2727294994
101325.2947539431
101325.3157165756
101325.3353813676
101325.3534111942
101325.3693541611
101325.3828152072
101325.3934776638
101325.4008562492
101325.4046791955
101325.4045925542
101325.4004631393
101325.3920951158
101325.3794964714
101325.3628821513
101325.3428201688
101325.3202716506
101325.296669911
101325.2728131279
101325.2489978174
101325.2252059955
101325.2017483977
101325.1784909884
101325.155741813
101325.1336320628
101325.1124863846
101325.092477548
101325.0740933818
101325.0575872275
101325.0434633516
101325.0321218335
101325.0239897038
101325.0194307668
101325.0188172106
101325.0223906111
101325.0303961022
101325.0427334334
101325.0594224088
101325.0797064542
101325.1023823251
101325.1260842539
101325.1499358961
101325.1737147501
101325.1973316851
101325.2209057748
101325.2440905058
101325.2667805939
101325.2888293051
101325.3099805627
101325.3299165385
101325.3483081364
101325.364893422
101325.3791270507
101325.390777102
101325.3993489253
101325.4045396489
101325.4059325814
101325.4033765634
101325.3966122237
101325.3855689327
101325.3703202396
101325.3514273645
101325.3296667745
101325.3064883781
101325.2828748328
101325.2593272406
101325.2356497968
101325.2123725975
101325.1892758714
101325.1665991501
101325.1444774691
101325.123277926
101325.1031071862
101325.0843519833
101325.0673945122
101325.05258274
101325.0403426746
101325.0311754583
101325.0253144475
101325.0233108346
101325.0253775819
101325.0318362673
101325.0427166422
101325.0579917643
101325.0772140014
101325.0992426654
101325.1226240594
101325.1463343508
101325.1700044867
101325.193469963
101325.2169534573
101325.2401357724
101325.2628160295
101325.2849226442
101325.3062094919
101325.3264259147
101325.3451736607
101325.3622773521
101325.3772353066
101325.3897586514
101325.3994007481
101325.4058817324
101325.4086780978
101325.4076427799
101325.4024592263
101325.3930596919
101325.3792863085
101325.3616596112
101325.3409042639
101325.3182576047
101325.2949346772
101325.27162554
101325.2482012243
101325.2250205787
101325.2021279302
101325.1795231659
101325.1574451363
101325.1361526668
101325.1158953951
101325.0968755831
101325.0794685701
101325.0641151867
101325.0511110673
101325.0409702413
101325.0340402916
101325.0307024999
101325.0313254004
101325.0362735424
101325.0456440779
101325.0594781648
101325.0774356218
101325.0986844469
101325.1216478121
101325.1451900847
101325.1687397843
101325.1921850466
101325.2154100983
101325.2386494535
101325.2613532504
101325.2835460913
101325.3049370656
101325.3254307001
101325.344542604
101325.362063959
101325.3776826852
101325.3910020558
101325.4016145905
101325.4092720213
101325.413380131
101325.4137952601
101325.4101798895
101325.4023842262
101325.3902478499
101325.3739773284
101325.3543332727
101325.3323971743
101325.30943739
101325.2863594881
101325.2633046426
101325.2400949103
101325.217429283
101325.1949836574
101325.1729549305
101325.1516164999
101325.1312342938
101325.11205029
101325.0942537789
101325.0784164131
101325.0647588382
101325.053754577
101325.0458413725
101325.0412546759
101325.0405666559
101325.044029888
101325.0518791725
101325.0642533617
101325.0808375992
101325.1010945177
101325.1235704635
101325.1468979656
101325.1702909204
101325.1937339578
101325.2167421365
101325.2399907757
101325.2627532765
101325.2849852764
101325.3065249724
101325.3271961459
101325.3467167569
101325.364628635
101325.3808393015
101325.3948903554
101325.4064084634
101325.4150721669
101325.4205152965
101325.4222905158
101325.4201580693
101325.4139558409
101325.4034526521
101325.3887218333
101325.3702316159
101325.3492438701
101325.3266905043
101325.3038704153
101325.2811359362
101325.2581781325
101325.2356112872
101325.2133483637
101325.1913702749
101325.1700503605
101325.1495226025
101325.1302264997
101325.1121287384
101325.0958450926
101325.0816016064
101325.069868777
101325.0609622459
101325.0554448908
101325.0533974494
101325.0554594097
101325.0618326507
101325.0726839891
101325.0879122595
101325.106948229
101325.1288414684
101325.1517697432
101325.1750815063
101325.1984260239
101325.2214985901
101325.2444205167
101325.2673169355
101325.2896316837
101325.3113176493
101325.3321653587
101325.3519947174
101325.3704048667
101325.3870190434
101325.4018408046
101325.414171769
101325.4237844141
101325.4304447904
101325.4334457868
101325.4327942898
101325.4281426627
101325.4192569211
101325.4061685375
101325.3889910167
101325.3689828572
101325.3470598085
101325.324554729
101325.3020478556
101325.2795777264
101325.2568532849
101325.2348812026
101325.2130528212
101325.1917525731
101325.1711597802
101325.1516508713
101325.1334708497
101325.1165989383
101325.1020581779
101325.0895731602
101325.0798051755
101325.0733268465
101325.0700416367
101325.0708643208
101325.0757527034
101325.0851215998
101325.0988924617
101325.1167335839
101325.1376640235
101325.1604279627
101325.1833453297
101325.2066391133
101325.2297858858
101325.2524345615
101325.2754172838
101325.2978315295
101325.3195977154
101325.3406580735
101325.360692044
101325.3796319849
101325.3966005679
101325.4121981821
101325.4252210016
101325.4357785487
101325.4434041644
101325.4478268571
101325.448483841
101325.4453014342
101325.4380182296
101325.4265264825
101325.4109161036
101325.3918409645
101325.3708931181
101325.3485761075
101325.3264413956
101325.3042634283
101325.2818095153
101325.2599139969
101325.2382768262
101325.2169926258
101325.1964088234
101325.1767178002
101325.1583620892
101325.1412075457
101325.1261498865
101325.113113702
101325.1026162783
101325.0950595331
101325.0910025686
101325.0903558626
101325.093900222
101325.1018163546
101325.1140940958
101325.1306764213
101325.1505344886
101325.1728255319
101325.1955870028
101325.2186320974
101325.2417201843
101325.2645453252
101325.2871137907
101325.3097382339
101325.3316338522
101325.3528909305
101325.3731742382
101325.3924260687
101325.4100813679
101325.4259639436
101325.4399073627
101325.4513059692
101325.4598662767
101325.4656173302
101325.4673821761
101325.4657472383
101325.4599936031
101325.4501168587
101325.4360877888
101325.4182887486
101325.3980753697
101325.3764705426
101325.354397929
101325.3326332031
101325.3106813292
101325.2885482154
101325.267256743
101325.2461107248
101325.2255067303
101325.2057423885
101325.1870834474
101325.1699433724
101325.1540417379
101325.1407810524
101325.1295341495
101325.1211148184
101325.1160869056
101325.1142135391
101325.1165533941
101325.1229572878
101325.1338158635
101325.1489664757
101325.16784169
101325.1892895186
101325.2119811141
101325.2347417274
101325.2578003007
101325.2806694019
101325.3029732336
101325.3257641477
101325.3477854063
101325.3691537297
101325.3897195096
101325.4092071544
101325.4275063363
101325.4436892699
101325.4585293378
101325.4707075148
101325.4802421378
101325.4869097436
101325.4902147737
101325.4898206368
101325.4855209478
101325.4772656721
101325.4647943941
101325.4485016937
101325.4290644202
101325.4082470438
101325.3865794352
101325.3649083798
101325.3433983417
101325.3215303455
101325.3002546689
101325.2793271073
101325.258738901
101325.2389534023
101325.2200877446
101325.2027315431
101325.186513037
101325.1727570439
101325.1609414389
101325.1516575228
101325.1455379357
101325.1430158137
101325.1437735293
101325.1488829287
101325.1583054975
101325.1720246878
101325.1897523863
101325.2103346193
101325.2326546712
101325.2554045524
101325.2780711554
101325.3010783195
101325.3235369001
101325.345817594
101325.3681674607
101325.389695368
101325.4105001181
101325.4302756647
101325.4489559414
101325.4658492786
101325.4811327301
101325.4941187458
101325.5045879507
101325.5121947208
101325.5169842399
101325.5175566384
101325.5149069309
101325.5081080489
101325.4972877075
101325.4824665761
101325.4642551566
101325.4439833591
101325.4228895456
101325.4014609371
101325.3802592834
101325.3589320252
101325.3373504529
101325.3168421443
101325.2963297957
101325.2765007745
101325.257545189
101325.2398359362
101325.2236621077
101325.2089128481
101325.1967655769
101325.1869784178
101325.1798067287
101325.1763238061
101325.1758923428
101325.1797969256
101325.1876803944
101325.2000639661
101325.2164407345
101325.2362567703
101325.2578822378
101325.2805121262
101325.3031834571
101325.3258375403
101325.3486377219
101325.370534752
101325.3931207603
101325.4148000516
101325.4357472394
101325.4558529974
101325.4747857199
101325.4924505018
101325.5079067669
101325.5219148226
101325.5333616649
101325.5416904089
101325.5474936699
101325.5498640509
101325.5482927068
101325.5429875049
101325.5337638018
101325.5204746259
101325.5036307847
101325.484112332
101325.4634835998
101325.4425961311
101325.4213817541
101325.4007100201
101325.3793345447
101325.3586128179
101325.3384527287
101325.3185936538
101325.299600086
101325.2816380128
101325.2652487906
101325.250091254
101325.2375259486
101325.227011283
101325.2190471123
101325.2143532648
101325.2134589402
101325.2155207125
101325.2222739176
101325.2331582465
101325.2482618264
101325.2669981082
101325.2881533113
101325.3102949618
101325.3329867523
101325.3554881615
101325.3782054376
101325.4005537765
101325.4222754754
101325.4445489707
101325.4656822177
101325.4860625781
101325.5053456591
101325.5234415724
101325.5396355268
101325.5541787109
101325.5662624099
101325.5759954291
101325.5824115662
101325.5863419863
101325.5858397302
101325.5822409323
101325.5743593697
101325.5627268755
101325.547217924
101325.5288771768
101325.5086133418
101325.4881200673
101325.4674713007
101325.4466506356
101325.4263447824
101325.4049718147
101325.3853682547
101325.3655914782
101325.346449653
101325.3283929207
101325.3116096341
101325.2964812179
101325.2828421702
101325.2719760264
101325.2636594984
101325.2575918256
101325.2555530416
101325.2570948877
101325.262147486
101325.271656792
101325.2853970372
101325.3029569852
101325.3234975439
101325.3452564593
101325.3677253579
101325.3903517893
101325.4125768679
101325.4354659489
101325.4570554845
101325.4789261139
101325.5005921356
101325.5211521448
101325.5408350641
101325.5592881102
101325.5762652383
101325.5910186951
101325.6042728235
101325.614779913
101325.6222801398
101325.6269841785
101325.6286751716
101325.625681853
101325.6196549969
101325.6094177707
101325.5954461024
101325.5781921328
101325.558901903
101325.5383886487
101325.5181825266
101325.4978480087
101325.4774668851
101325.4575294296
101325.4363987007
101325.4174786706
101325.3984048776
101325.3801380595
101325.3631961731
101325.3476799471
101325.3337676006
101325.3222076601
101325.3129977834
101325.3069307155
101325.3029761425
101325.3037177288
101325.3075643231
101325.3158092895
101325.3280605367
101325.3444152885
101325.3639794541
101325.3856518487
101325.4076403883
101325.4301714911
101325.452708665
101325.47471529
101325.497670509
101325.5182807978
101325.5406186126
101325.561548244
101325.5812853335
101325.6002839703
101325.6177310467
101325.633325772
101325.6467773334
101325.6583461714
101325.6671938579
101325.6724891922
101325.6752147607
101325.6745845224
101325.6693121526
101325.6608946309
101325.6483384568
101325.632370437
101325.6138643097
101325.5941740356
101325.57376962
101325.5538208593
101325.5339052453
101325.5138214249
101325.4946484956
101325.4735187375
101325.4554018144
101325.4371893711
101325.4199394101
101325.4042809222
101325.3898306951
101325.3776190039
101325.36800053
101325.3609242897
101325.3570346823
101325.3555288612
101325.3589806687
101325.3651147076
101325.3766674128
101325.391475739
101325.4100519773
101325.4310103699
101325.4531528981
101325.4753510382
101325.4977639612
101325.5202249508
101325.5419767485
101325.5650587214
101325.584666638
101325.6069784466
101325.6273276253
101325.6460649429
101325.6648735102
101325.6803283206
101325.6949802081
101325.7070351958
101325.7165428522
101325.7237364999
101325.7266326193
101325.7274037275
101325.7242725548
101325.7197250987
)
;

boundaryField
{
    inlet
    {
        type            calculated;
        value           uniform 101324.9999999996;
    }
    outlet
    {
        type            calculated;
        value           uniform 101325.7115420006;
    }
    frontAndBack
    {
        type            empty;
    }
}


// ************************************************************************* //
