/*--------------------------------*- C++ -*----------------------------------*\
| =========                 |                                                 |
| \\      /  F ield         | OpenFOAM: The Open Source CFD Toolbox           |
|  \\    /   O peration     | Version:  v2012                                 |
|   \\  /    A nd           | Website:  www.openfoam.com                      |
|    \\/     M anipulation  |                                                 |
\*---------------------------------------------------------------------------*/
FoamFile
{
    version     2.0;
    format      ascii;
    class       volScalarField;
    location    "0.013";
    object      rho;
}
// * * * * * * * * * * * * * * * * * * * * * * * * * * * * * * * * * * * * * //

dimensions      [1 -3 0 0 0 0 0];


internalField   nonuniform List<scalar> 
1000
(
1.176301104566517
1.176325009683117
1.176271492247745
1.176227929920093
1.176177120249537
1.176130947389402
1.176091920611772
1.176059059457892
1.176030933955423
1.176011622802378
1.176005438987088
1.176004771020999
1.176007080173775
1.17601522104368
1.176031520257557
1.176056386124638
1.176088902060541
1.176127633736273
1.176171349368162
1.176219163337449
1.176270342570865
1.176324107105848
1.176379548201676
1.176435635969773
1.176491262958199
1.176545312012215
1.17659678920558
1.176645061867474
1.176690073992096
1.176732029561234
1.176769733327533
1.176797815150025
1.176809853537677
1.176811152827391
1.176810632685863
1.176808321675149
1.176802193910865
1.176790135943618
1.176770449833557
1.176742360622043
1.176706209742945
1.176663256898899
1.176615172835404
1.176563530509433
1.176509558418243
1.176454190258061
1.176398255239002
1.176342623868944
1.176288197342345
1.176235722847943
1.176185550217535
1.176137653827038
1.176092469632868
1.176053068707254
1.176026808188828
1.176017813026136
1.176017188951983
1.176017606572611
1.176019714338604
1.17602504354912
1.176035400948467
1.176052403274745
1.17607717904812
1.176110077501059
1.176150569017388
1.176197377944505
1.17624881109912
1.176303143973201
1.176358899867056
1.17641493880419
1.176470413990093
1.176524732435172
1.176577586233113
1.176628950614659
1.176678792417878
1.176726089119939
1.176766789187817
1.176792974017719
1.176801534099785
1.176802140867477
1.176801714752427
1.176800004776076
1.176795502823623
1.176786717066902
1.176772111601607
1.176750428733446
1.176720921058579
1.176683543349671
1.176639002199073
1.176588636872579
1.176534169422991
1.176477397903818
1.176419908225606
1.176362871963508
1.176306971082497
1.176252441182133
1.176199227878574
1.1761474229508
1.176098462021104
1.176057339569831
1.176032467237005
1.176025230967459
1.17602485928259
1.176025178029427
1.17602688261315
1.17603106494662
1.176039168330199
1.176052574805317
1.176072494997106
1.176099757920787
1.176134645162191
1.176176784130094
1.176225157667852
1.17627825804446
1.176334348949104
1.176391753632855
1.176449105385083
1.176505529302487
1.176560702829693
1.176614687775203
1.176667382035606
1.176717330942628
1.176759721058801
1.176786277755647
1.176794758719364
1.176795398481548
1.17679505036394
1.17679373877375
1.176790209830488
1.17678326564235
1.176771580166847
1.176753933905082
1.176729359731656
1.176697315799367
1.176657813240554
1.176611470047549
1.176559470739771
1.176503411873704
1.176445034306632
1.176385905763612
1.176327168847208
1.176269446759188
1.176212967617999
1.176158096820277
1.176106638139071
1.176064095171496
1.176038840299168
1.176031504225541
1.176031053368011
1.176031176504139
1.176032414352336
1.176035686081667
1.176042231308809
1.176053279040649
1.176069982511535
1.176093262851779
1.176123675972606
1.176161294408296
1.176205642097866
1.176255716226729
1.176310110223858
1.176367230039775
1.17642556178802
1.17648392400802
1.176541612233647
1.176598306300385
1.176653664007088
1.176706064147865
1.176750366826709
1.176778727370865
1.176788527803746
1.176789934698553
1.176790336835115
1.176789536296177
1.176786932834284
1.176781353783098
1.176771619800131
1.176756606342651
1.176735360317525
1.176707222064657
1.176671933950026
1.176629714861731
1.176581273157172
1.176527739244416
1.176470516880837
1.176411069739229
1.17635066097544
1.176290168770996
1.176230190687071
1.176171541949815
1.176116717460987
1.176071215860224
1.176043550376523
1.17603440380625
1.176032229032439
1.176031129645102
1.176031725872968
1.176034133245188
1.176039508462311
1.176049040166803
1.176063782923947
1.176084606653973
1.176112134362006
1.176146640161975
1.176187967657671
1.176235509417585
1.176288256612833
1.176344918853715
1.176404112219283
1.176464572597336
1.176525315467475
1.176585673394659
1.17664483918578
1.176700480981473
1.176747537237455
1.176778935116496
1.176791741010081
1.176794508345151
1.176795533049336
1.176795006635011
1.176792769719635
1.176787890388291
1.176779373274578
1.176766207709301
1.176747425280546
1.176722219587417
1.176690090304439
1.176650940794311
1.176605111723608
1.176553360358648
1.176496778873687
1.176436639897478
1.176374218014986
1.176310672175257
1.17624703434477
1.176184632412821
1.176126458767546
1.176078392079227
1.176047733909624
1.176035936171115
1.17603338022509
1.176032325640782
1.176032877068648
1.176035131035972
1.17603997703205
1.176048335997429
1.176061135645733
1.176079267008165
1.176103481408076
1.176134267638735
1.176171759435059
1.176215690822565
1.176265405965869
1.176319931193055
1.176378110767379
1.176438765514404
1.176500788495256
1.17656316150053
1.176624726452998
1.176683111588769
1.176733416520814
1.176768726753232
1.176784818868499
1.176788539792211
1.176789698669246
1.17678957106289
1.176787899735633
1.176783895855515
1.176776675525858
1.176765362364276
1.176749081395772
1.17672701954594
1.176698538329134
1.1766632800028
1.176621241869406
1.176572808126372
1.176518722898069
1.176459994081191
1.176397768961028
1.176333262200892
1.176267744998352
1.176202771951963
1.176141323286323
1.176089300938032
1.1760544329508
1.176039725154328
1.176036523753921
1.176035461709606
1.176035761338659
1.176037604243309
1.176041770660235
1.176049081573807
1.176060361615396
1.176076423078593
1.17609799576501
1.176125641108557
1.176159679019786
1.176200126327466
1.176246657956103
1.176298616534084
1.176355089330316
1.176415026615037
1.17647731937938
1.17654081421631
1.176604222990552
1.176665310603048
1.176719308971303
1.1767590738581
1.176779222198709
1.176784455669483
1.176785615556311
1.176785819299551
1.176784605047735
1.17678136488339
1.176775262105084
1.176765493972818
1.17675123801435
1.176731708481332
1.176706240268376
1.176674359679642
1.176635844388741
1.176590777108251
1.176539571190483
1.176482941632386
1.17642183405972
1.176357380554833
1.176290899721026
1.17622401788698
1.176159554909224
1.176103285324179
1.176063471280921
1.176044780175309
1.176040312837705
1.176039260725287
1.17603929478719
1.17604072698588
1.176044225046008
1.176050544876293
1.176060451853991
1.176074713741021
1.176094036602936
1.176118999634454
1.176150009544257
1.176187252107945
1.176230640975075
1.176279791455647
1.176334045901738
1.176392544411267
1.176454280243491
1.176518101163483
1.176582675080083
1.176645960940318
1.176703544189941
1.176748115983418
1.176773235682572
1.17678091153702
1.176782150871529
1.176782626133279
1.176781793517077
1.176779232682628
1.176774125588332
1.176765721127703
1.176753237779361
1.176735904584549
1.176713043253657
1.176684122524766
1.176648796183223
1.176606949129564
1.176558742050767
1.176504624976401
1.176445310095812
1.176381755376666
1.176315195829658
1.176247230937407
1.176180418031112
1.176120080657908
1.176074828269408
1.176051035548334
1.176044331499599
1.176043284446769
1.176043038726235
1.176044117756124
1.176046998557748
1.17605241023798
1.176061068652967
1.176073714562352
1.176091044739291
1.176113648471599
1.176141976742021
1.17617631328874
1.176216730604091
1.176263050215294
1.176314834574085
1.176371420642582
1.176431956484241
1.176495386208413
1.176560405703539
1.176625170464504
1.176685864642207
1.176735318502277
1.176766116393468
1.176777424546842
1.176779183752338
1.176779762124208
1.17677926420262
1.176777287401011
1.176773058270061
1.176765875519126
1.176754989629352
1.176739627533645
1.176719091615446
1.176692816663617
1.176660386326253
1.176621558992539
1.176576314057217
1.176524888651872
1.176467779092687
1.176405742278167
1.176339854634149
1.176271605699619
1.176203256146972
1.176139421975037
1.176088618188121
1.17605888909735
1.176048855005575
1.176047390509671
1.176047005610106
1.176047771553494
1.176050098585446
1.17605468422634
1.176062199124085
1.176073365636639
1.17608888435152
1.176109356919204
1.176135260629677
1.176166939336293
1.176204572721744
1.176248132492756
1.176297355081416
1.176351752504867
1.176410637141455
1.176473092206917
1.176537904569261
1.176603423869718
1.176666532869384
1.176720624242284
1.176757351584802
1.176773516421943
1.176776573748125
1.176777120692402
1.176776877190551
1.176775396813303
1.176771943239257
1.176765853160883
1.176756405555851
1.176742830206161
1.176724412913587
1.176700558638314
1.176670799580942
1.176634807474441
1.176592432889841
1.176543749790878
1.176489075926145
1.176428982138902
1.176364359266277
1.176296534079961
1.176227497004094
1.176161073293792
1.176105028691215
1.176068741432166
1.176054085174268
1.176051503262008
1.176051077851282
1.176051587391863
1.176053439313929
1.176057301342725
1.176063794360148
1.176073615005036
1.176087470932947
1.176105982501962
1.176129651750999
1.176158865668403
1.176193878646357
1.176234772244318
1.176281420420819
1.176333483197703
1.176390420156515
1.17645146394896
1.176515542702392
1.176581173720298
1.176645818833091
1.176703888337117
1.17674661493447
1.176768574853246
1.176774157016377
1.176774637176539
1.176774610043309
1.176773524314933
1.17677071950603
1.176765573097786
1.176757412495974
1.176745478046358
1.176729027094655
1.176707423073395
1.17668015462542
1.17664683516433
1.176607225259327
1.176561274942159
1.176509156742652
1.176451282327824
1.176388362791632
1.176321532178624
1.176252521766028
1.176184419515321
1.176123831528238
1.17608085688493
1.176060467674387
1.176055674369416
1.176055226724833
1.176055523817699
1.176056972902661
1.176060190221365
1.176065765915804
1.1760743648344
1.176086696229353
1.17610340170473
1.17612500748952
1.176151931739107
1.17618448146201
1.176222820345637
1.176266930732426
1.1763165941715
1.176371396661823
1.176430714816479
1.176493632308507
1.176558821563929
1.176624204059425
1.176685378605112
1.176733881249883
1.176762193465952
1.176771592935947
1.176772448694306
1.176772511857289
1.176771707915478
1.176769454540012
1.176765138915784
1.176758134283385
1.17674769061233
1.17673304706991
1.17671353535142
1.176688606460251
1.176657823382888
1.176620874840582
1.17657761342396
1.176528094145337
1.176472597280552
1.176411670242254
1.176346253376417
1.176277853728716
1.176208988423127
1.176144947399127
1.176095486409913
1.176068467536833
1.176060156441902
1.176059382688046
1.176059530608081
1.176060650960193
1.176063338067511
1.176068123025251
1.176075625720544
1.176086553456947
1.176101574804234
1.176121244974641
1.176146010092704
1.176176218443798
1.176212098617135
1.17625372053669
1.176300966999297
1.176353531954453
1.176410917027584
1.176472350159357
1.176536667463977
1.176602134672339
1.176665380426673
1.176719006792876
1.176753917076293
1.176768378771271
1.176770688381153
1.176770597940451
1.176770009756581
1.176768199405068
1.176764579725586
1.176758570044468
1.176749458758696
1.17673648047364
1.176718931762066
1.176696217476302
1.176667851340949
1.176633464609649
1.176592834311237
1.176545920099425
1.17649289097952
1.176434155760537
1.176370477548661
1.176303142264419
1.176234225715896
1.17616785042347
1.176112621285784
1.176078483276061
1.176065436026109
1.17606348384627
1.176063625429546
1.176064470942276
1.176066701023815
1.176070795433637
1.176077327109371
1.176086981085916
1.176100442780043
1.176118297512946
1.176141021645708
1.176168999492332
1.17620251112615
1.176241697789909
1.176286530717615
1.176336799317051
1.176392107505255
1.17645181890443
1.176514942597398
1.176579986948302
1.176644311784508
1.176702041025562
1.176743602419471
1.176764142122183
1.176768893693521
1.176768928794068
1.176768469682781
1.176766964738073
1.176763918352095
1.176758756401211
1.176750824229732
1.176739359458312
1.176723628165437
1.176702998320704
1.176676942290652
1.176645037121908
1.17660699011085
1.176562675802817
1.176512167188978
1.176455761447344
1.176394057628297
1.176328127108816
1.176259739086112
1.176192141631968
1.176132268875327
1.17609079969724
1.176071938437057
1.176067729008123
1.176067733158177
1.176068356495549
1.176070212124072
1.176073731697323
1.176079426777102
1.176087941413261
1.176099971134293
1.176116133177504
1.176136933478962
1.176162785828889
1.176194012507817
1.176230816656244
1.176273248709564
1.176321184344595
1.176374320734708
1.176432148398032
1.176493828596671
1.17655804584586
1.17662268625463
1.176683348585603
1.17673112605734
1.176758151023852
1.17676683119444
1.176767603878958
1.17676708527453
1.176765836439664
1.17676323236043
1.176758768889576
1.176751845621517
1.176741724387566
1.176727662543826
1.176708996684302
1.176685152716639
1.176655651066422
1.176620136206398
1.176578410313128
1.176530461944862
1.176476488655235
1.176416946642014
1.176352714177392
1.1762853083281
1.176217298213087
1.176154023569217
1.176105645326488
1.176080102526085
1.17607236774379
1.176071781232839
1.176072343973278
1.176073823701011
1.176076853626167
1.176081834380791
1.176089349140546
1.176100087964409
1.17611469237012
1.176133695388135
1.176157538427167
1.176186580353495
1.176221074987373
1.176261138223383
1.176306723415049
1.176357613448093
1.176413403096894
1.176473399350213
1.176536477394866
1.176600898664163
1.176663298921414
1.176716295226232
1.176750245357729
1.17676420809871
1.176766303906277
1.176765884226596
1.176764839168817
1.176762587832882
1.176758687644696
1.176752610803675
1.176743678144172
1.176731136922369
1.176714291321032
1.176692533331441
1.176665340800619
1.176632299690408
1.176593140591449
1.176547770069479
1.176496293408271
1.176439048549212
1.176376733886581
1.176310623192601
1.176242837346897
1.176177518599437
1.176123216216612
1.176090187181393
1.176077725302974
1.176075798994883
1.176076262727473
1.176077448299108
1.176080065795837
1.176084443874502
1.176091094401829
1.176100670509321
1.176113833006935
1.176131150364015
1.176153096752182
1.176180062599746
1.176212338546394
1.17625008999788
1.176293336044536
1.176341934733674
1.176395572117819
1.176453702452608
1.1765153920166
1.176579129695893
1.1766422822895
1.176699257832417
1.176740290358379
1.176760204967469
1.176765028978968
1.176765059421511
1.176764091958977
1.176762108748416
1.176758651334448
1.176753260319825
1.176745330900315
1.176734133393152
1.17671895707672
1.176699160126507
1.176674169273172
1.176643507588664
1.176606842597528
1.176564017042737
1.176515064590715
1.176460229644161
1.176400043886044
1.176335539785745
1.176268517628443
1.176202198989119
1.176143289169288
1.176102558578977
1.176084385155704
1.17608010209215
1.176080126904101
1.176081129949744
1.176083372757111
1.17608725995003
1.17609318837178
1.176101747670962
1.17611359460311
1.176129326931532
1.17614945894241
1.176174424425578
1.176204558246974
1.176240070054701
1.176281026183572
1.176327338734128
1.176378764058102
1.176434873251456
1.176494908602066
1.176557595860611
1.176620848397437
1.176680424593335
1.176727778859106
1.176754419669643
1.176763534901602
1.176764356349858
1.176763535171123
1.17676184701414
1.176758715462199
1.176753825758996
1.176746693165678
1.176736652569227
1.176722988595081
1.176705023276835
1.176682133571046
1.176653780508991
1.176619561067055
1.176579249559205
1.176532817399836
1.17648044001113
1.176422527674836
1.176359899654583
1.176294059668209
1.176227568364179
1.176165577761478
1.176117847021338
1.176092702417928
1.176084799221861
1.176083929624864
1.176084775580363
1.176086626674527
1.176090129357322
1.176095505758174
1.17610324412469
1.17611394959087
1.176128221337813
1.176146612996082
1.176169626269551
1.176197670184379
1.176231012893498
1.176269761805053
1.176313863096778
1.176363107228608
1.176417128875904
1.176475323440805
1.176536653689432
1.176599402437657
1.1766603189282
1.176712627424766
1.176746744827011
1.176760825209978
1.176763624133605
1.17676326019861
1.176761812348774
1.176758990474421
1.176754487032731
1.176747936570838
1.17673879279699
1.17672641254362
1.176710134220187
1.176689289518328
1.176663241316661
1.176631470262144
1.176593654963552
1.176549702258537
1.176499744502967
1.176444139431079
1.176383558410213
1.176319224920127
1.176253223101713
1.176189510433139
1.176136085840175
1.176103045659239
1.176090535882514
1.176088080776365
1.176088244762639
1.176089763253384
1.176092847640167
1.176097781124481
1.176104920319177
1.176114760098015
1.176127824246935
1.176144636308102
1.176165736594767
1.176191643072648
1.176222757203962
1.176259288257222
1.176301234610801
1.176348398944384
1.176400416561151
1.176456742334044
1.176516495395946
1.176578257222911
1.176639592389874
1.176695326906907
1.176736366270826
1.176756622366342
1.17676243010541
1.176763029948299
1.176762042187276
1.176759713889114
1.176755564664996
1.176749397560824
1.176740834813819
1.176729379372371
1.176714463328924
1.176695454470494
1.176671669403236
1.176642446324037
1.17660726277534
1.176565849932662
1.176518257826481
1.176464844293383
1.17640624860009
1.17634354891666
1.176278514463264
1.176214141886129
1.176156675970581
1.176116243416979
1.176097731898305
1.176092877604124
1.17609211054025
1.176092960327248
1.176095360778649
1.176099753065011
1.176106420134784
1.176115707761845
1.176127974624505
1.17614359137633
1.176163006155079
1.176186772932036
1.176215469318875
1.176249543576284
1.176289183140327
1.176334267264279
1.176384405724566
1.176439017761568
1.176497279277211
1.176557925266101
1.17661901486265
1.176676701268685
1.176723179727955
1.176750560461014
1.17676028933087
1.176761965350672
1.176762016915823
1.176760556377579
1.176757210894696
1.176751588697185
1.176743378732269
1.176732303672229
1.17671809535495
1.176700390912851
1.176678626418454
1.176652046754747
1.176619851039494
1.176581404266318
1.176536434351078
1.176485177730979
1.176428356353904
1.176367116879092
1.176303142452126
1.176238818624956
1.176178793992479
1.176132187446367
1.176106570168513
1.176098261385234
1.176096977243278
1.176097014164249
1.176098445732895
1.176101710112166
1.176107316330966
1.176115814446655
1.176127624700534
1.176142924499922
1.176161738065623
1.176184153804482
1.176210500960917
1.176241417759238
1.176277761767717
1.176320184164447
1.176368429657788
1.176420973602148
1.17647717362937
1.176535837464242
1.176606432071674
)
;

boundaryField
{
    inlet
    {
        type            calculated;
        value           uniform 1.176395950917642;
    }
    outlet
    {
        type            calculated;
        value           uniform 1.176638868712075;
    }
    frontAndBack
    {
        type            empty;
    }
}


// ************************************************************************* //
