/*--------------------------------*- C++ -*----------------------------------*\
| =========                 |                                                 |
| \\      /  F ield         | OpenFOAM: The Open Source CFD Toolbox           |
|  \\    /   O peration     | Version:  v2012                                 |
|   \\  /    A nd           | Website:  www.openfoam.com                      |
|    \\/     M anipulation  |                                                 |
\*---------------------------------------------------------------------------*/
FoamFile
{
    version     2.0;
    format      ascii;
    class       volScalarField;
    location    "0.013";
    object      T;
}
// * * * * * * * * * * * * * * * * * * * * * * * * * * * * * * * * * * * * * //

dimensions      [0 0 0 1 0 0 0];


internalField   nonuniform List<scalar> 
1000
(
299.9866008135877
299.9883431816203
299.9820023532818
299.9773761367728
299.9730143690136
299.9692789854354
299.9659051399013
299.9628888164273
299.9602901032733
299.9586235072649
299.9582609885526
299.9584949760334
299.9590396252975
299.9600186625653
299.9617366946602
299.9642911577449
299.967592645612
299.9714941031377
299.975874546577
299.9806525771297
299.9857649372745
299.9911435874874
299.9967052217545
300.0023512031512
300.0079721344719
300.0134552695973
300.0186984959086
300.0236348154136
300.02825459526
300.032573803741
300.0364649190735
300.0393734959102
300.0406411499752
300.0408014143027
300.0407721680962
300.0405518910701
300.0399225373856
300.0386815956276
300.0366593207852
300.0337766764578
300.0300705957738
300.0256719758242
300.0207528973468
300.0154747349147
300.0099630681863
300.0043128274748
299.9986078476301
299.9929359100897
299.9873878355879
299.9820388031074
299.9769236401099
299.9720391326168
299.9674294941289
299.9634081923385
299.9607266423837
299.9598065144485
299.9597407219567
299.9597805276131
299.9599928454163
299.9605354082497
299.9615919432728
299.9633272679595
299.9658565608021
299.9692153094506
299.973349214694
299.9781278388015
299.9833781773643
299.9889240969596
299.9946148298023
300.0003340401959
300.005995362147
300.0115383578728
300.0169316889665
300.0221729022447
300.0272586719001
300.0320847004123
300.0362376087501
300.0389094407462
300.0397829531119
300.0398449678566
300.0398016315481
300.0396272901648
300.0391679956529
300.0382715578968
300.0367812667018
300.0345687788569
300.0315578132918
300.0277437289964
300.0231985917773
300.0180590245592
300.012500718424
300.0067071339961
300.0008400993381
299.9950191735253
299.9893139591063
299.9837485091995
299.9783172824219
299.9730296556876
299.9680321753211
299.9638346693499
299.9612958164858
299.9605571637147
299.9605192230863
299.9605517601197
299.9607257595966
299.961152678429
299.9619798392073
299.9633483075825
299.965381644776
299.9681644494855
299.9717254318217
299.9760265206729
299.9809638520066
299.9863834960091
299.9921082064045
299.9979668337591
300.0038198885451
300.0095780867146
300.015208520228
300.020717506698
300.0260946362817
300.0311914835085
300.0355169152852
300.0382266723265
300.0390920351297
300.0391573166734
300.0391217998168
300.0389879748553
300.0386278988228
300.0379193427197
300.0367269974689
300.0349264189485
300.0324189058918
300.0291491411489
300.0251182234217
300.0203891701689
300.0150828101136
300.009362027844
300.003404449679
299.9973700523311
299.9913754433781
299.9854842324096
299.9797197112902
299.9741191853769
299.9688667802251
299.9645242946735
299.9619464063728
299.9611975730534
299.9611515546679
299.9611641285017
299.9612904876266
299.9616244547336
299.962292563961
299.9634202621684
299.965125256108
299.9675015529538
299.9706058710945
299.9744455800986
299.9789720477235
299.9840828763199
299.9896344653561
299.9954640930542
300.0014172357405
300.0073733119576
300.013260431057
300.0190459271092
300.0246948887971
300.0300418967063
300.0345625074099
300.0374563380723
300.0384563393912
300.0385998981032
300.0386409350803
300.0385592566607
300.0382936147917
300.0377243528425
300.0367311326718
300.0351992020383
300.033031295668
300.0301600806597
300.0265592370048
300.0222510616643
300.0173077950708
300.0118447487231
300.0060051379652
299.9999383062927
299.9937731490903
299.9875992859052
299.9814777057631
299.9754916214409
299.9698957004944
299.9652512416887
299.9624273016186
299.9614936644822
299.9612716784767
299.9611594621357
299.9612203277472
299.9614660680342
299.9620147502663
299.9629877034875
299.9644925654984
299.9666181190824
299.9694279350412
299.9729499630179
299.9771682024866
299.9820206123308
299.9874041837587
299.9931871782681
299.9992283236718
300.005398589698
300.0115974937016
300.0177569232058
300.023794512173
300.0294723252505
300.0342739215334
300.0374776782158
300.0387843452709
300.0390667181608
300.039171279163
300.039117571666
300.0388893328744
300.0383914705659
300.0375224201408
300.0361790509588
300.0342625378182
300.0316905790892
300.0284120955513
300.0244171913791
300.019740587561
300.014459514678
300.0086853832892
300.0025480284014
299.9961774975418
299.9896920514099
299.9831970054302
299.976827892504
299.9708901581387
299.9659838951003
299.9628544883656
299.9616502337976
299.9613893405696
299.961281698612
299.9613379919155
299.9615680738833
299.9620627358358
299.9629159819991
299.9642225035531
299.9660732415335
299.9685448696447
299.9716872561184
299.9755140194666
299.9799979736308
299.9850721380909
299.9906370950849
299.9965748524111
300.0027650367056
300.0090946593494
300.0154598002442
300.021742279694
300.0277000853457
300.0328332151259
300.0364361997719
300.0380781865605
300.0384578612598
300.0385761132592
300.0385630985398
300.0383925699801
300.0379840341267
300.0372473008778
300.0360929433828
300.0344316732392
300.032180512048
300.0292742882374
300.0256764682666
300.0213867397179
300.0164442648432
300.0109249338742
300.0049315585681
299.9985811840415
299.991997743994
299.9853109574132
299.9786794860133
299.9724075246667
299.9670975325084
299.9635384266912
299.9620371297722
299.9617103508654
299.961601946841
299.9616325375288
299.9618206595555
299.9622459521234
299.9629922169453
299.9641436244153
299.9657830807261
299.9679850661748
299.9708068681599
299.97428111344
299.9784094858533
299.9831587666713
299.9884618197586
299.9942254492074
300.0003424841516
300.0066997144726
300.0131794124808
300.0196501169966
300.0258837520352
300.0313938044112
300.0354513559358
300.0375072318259
300.0380412396194
300.0381595948027
300.0381803893773
300.038056497435
300.0377258874815
300.0371031835888
300.0361064747288
300.0346518315796
300.0326590669849
300.0300602972874
300.0268071620525
300.0228769423937
300.0182780392165
300.0130525891015
300.007273510224
300.001037260545
299.9944593354045
299.9876742798152
299.980848064274
299.9742685025424
299.9685250348459
299.9644610880204
299.9625531984583
299.9620971978853
299.9619898068505
299.9619932884373
299.9621394864263
299.9624965552519
299.9631416538033
299.9641529049154
299.9656086709056
299.9675810118295
299.9701290316002
299.9732942209556
299.9770955124475
299.9815240567247
299.986540550084
299.9920778292226
299.9980480919303
300.0043485572191
300.0108616071549
300.0174512846877
300.0239093046322
300.0297852137501
300.0343332839166
300.0368964302185
300.0376796495336
300.03780611074
300.0378546087461
300.0377696561556
300.0375083619596
300.0369872534084
300.0361296883652
300.0348559176097
300.0330872654014
300.0307545061183
300.0278034095037
300.024198619491
300.0199283555773
300.0150089733028
300.0094863511003
300.0034331208228
299.9969470013056
299.9901539956788
299.9832173220648
299.9763979853766
299.9702393748123
299.9656203503279
299.963191722496
299.9625074077451
299.9624005327132
299.9623754545727
299.9624856011851
299.9627796625773
299.9633320605558
299.9642158637891
299.9655066796787
299.9672756217672
299.9695828270315
299.9724743089341
299.975979003052
299.9801042764465
299.9848318755365
299.9901171014616
299.9958922418301
300.0020703094611
300.0085435108384
300.0151787344248
300.0217877411882
300.0279811562669
300.0330274267617
300.0361699744625
300.0373238210799
300.0375033264672
300.0375623443994
300.0375115421184
300.0373098396915
300.0368783147641
300.0361454084126
300.035034637956
300.0334671143876
300.0313716426743
300.0286905318973
300.0253812731515
300.0214191803253
300.0168021121062
300.0115542227086
300.0057261131979
299.9993949786104
299.992670629704
299.9857050527229
299.9787289604247
299.9722135037272
299.9670278774279
299.9639933129019
299.9629690842634
299.9628195977481
299.9627803115042
299.96285849823
299.9630960328944
299.9635641122728
299.9643311905945
299.9654709978921
299.9670550386163
299.9691447139111
299.9717887254917
299.9750221484588
299.9788632941907
299.9833092402632
299.9883330464735
299.9938848664229
299.999894479936
300.0062682845687
300.0128824453359
300.0195685253445
300.0260084242581
300.0315279545611
300.0352755513707
300.0369249608084
300.0372369207091
300.0372927307596
300.0372678873284
300.0371168378476
300.0367644481047
300.0361430346526
300.0351790232997
300.0337938171762
300.0319145314268
300.0294804343741
300.0264437709877
300.0227710164505
300.0184468872596
300.0134788893369
300.0078994017516
300.0017666305237
299.995171441187
299.9882491995163
299.9812030237513
299.9744233376045
299.9687028296487
299.9649988713924
299.9635028391359
299.9632392912017
299.9631958687571
299.9632478822714
299.9634369194271
299.9638311358605
299.964493905775
299.9654963345792
299.9669106494297
299.9688001628704
299.9712161053258
299.9741979578377
299.9777716606972
299.9819455069373
299.9867065951975
299.9920201856201
299.9978310805378
300.0040609250248
300.0106002937553
300.0172978506777
300.0238945742259
300.0298200949466
300.0341798763944
300.0364206057848
300.036990190342
300.0370391847601
300.0370364177963
300.0369256362586
300.0366394443826
300.0361143203621
300.0352816318663
300.0340638610291
300.0323852211778
300.0301807457324
300.0273982382375
300.0239982264858
300.0199562464085
300.0152671601041
300.0099485290969
300.004042315393
299.9976210384528
299.9908003885569
299.9837570247107
299.9768061021356
299.9706219173587
299.9662353912269
299.9641541784091
299.963664902548
299.9636192095705
299.9636495362839
299.9637974530318
299.9641258606758
299.9646949953423
299.9655727177747
299.966831418999
299.9685365816445
299.9707419073635
299.9734900611912
299.9768123570958
299.9807254738398
299.9852275749047
299.9902963255
299.9958894304453
300.0019432254964
300.0083641550698
300.0150167061917
300.0216887520978
300.0279311836351
300.0328803883059
300.0357693023249
300.0367283926776
300.0368157108908
300.0368221563559
300.0367401265298
300.0365102012231
300.0360698484203
300.0353551128245
300.034289459378
300.0327952478989
300.0308042754123
300.0282605074912
300.0251193296401
300.0213489497997
300.0169342899417
300.011880921609
300.0062173994273
299.9999995378796
299.9933232551511
299.9863423171805
299.9793136038276
299.9727770490296
299.9677284944447
299.9649705796326
299.9641222277396
299.9640432464996
299.9640583454866
299.9641727059292
299.9644469921647
299.9649354129515
299.9657012397429
299.9668166653537
299.9683499260806
299.9703576836957
299.9728854604223
299.9759687862195
299.9796309673246
299.9838791091238
299.988701212639
299.9940660012986
299.9999225690132
300.0061920808474
300.0127557229945
300.0194364902326
300.0258903462165
300.0313624268533
300.0349246141697
300.0364002411366
300.036635904978
300.0366266762422
300.0365666605163
300.0363819397053
300.0360125994674
300.0353993869007
300.03446968853
300.0331453998039
300.0313547356329
300.0290369547772
300.0261424190671
300.022633475745
300.0184873395004
300.0136998536541
300.008288219612
300.0022941074981
299.9957953451602
299.9889231248661
299.9818892737999
299.9751145513078
299.9694772955395
299.9659927294845
299.9646609410914
299.9644616721846
299.964476123441
299.9645624285255
299.9647900634886
299.965207997139
299.9658747085471
299.9668601179437
299.9682341821788
299.9700566377122
299.9723760950066
299.9752317639943
299.9786522087412
299.9826518168167
299.9872276179749
299.9923580799125
299.9980027368405
300.0040965997356
300.0105385027498
300.0171761938951
300.0237402386476
300.0296310416128
300.0338719282771
300.0359677442439
300.0364525776321
300.0364561581657
300.0364093114172
300.0362557526484
300.0359449099188
300.0354181985098
300.0346088159282
300.0334389661178
300.0318337537645
300.0297286761529
300.0270698776521
300.0238141774311
300.0199316779087
300.0154095405558
300.0102551709674
300.0044988483949
299.9982016575555
299.991472891042
299.9844930744548
299.9775937005095
299.9714825429373
299.9672497002502
299.9653244603239
299.9648947849724
299.9648952072524
299.964958832642
299.965148244535
299.9655075019354
299.9660888189827
299.966957932643
299.9681858326531
299.9698355144187
299.9719586088308
299.9745973366822
299.9777845727812
299.9815410253305
299.9858718104576
299.9907642027465
299.9961872552593
300.0020889293061
300.0083835868755
300.0149369466239
300.0215332697057
300.0277234390537
300.0325986513197
300.0353562199432
300.0362419162427
300.0363207568857
300.0362678386277
300.0361404111371
300.0358746996344
300.0354192596943
300.0347128244882
300.033680069016
300.032245209098
300.0303405421833
300.0279074743089
300.0248970499015
300.0212729640006
300.0170149964976
300.0121219395847
300.0066139076776
300.0005374073701
299.9939820214499
299.9871025367502
299.9801611369875
299.9737028343966
299.9687648201671
299.9661575863133
299.9653680653048
299.9653081960631
299.9653656355591
299.9655166763353
299.9658259526592
299.966334355858
299.967101409364
299.9681975451832
299.9696882380201
299.9716278856611
299.974061529764
299.9770257817876
299.9805465254541
299.9846355608196
299.9892880928238
299.9944819240721
300.0001756566537
300.0062985234331
300.01273569723
300.0193097323686
300.0256773166695
300.0310851122911
300.0345493314466
300.0359740488096
300.0361878964118
300.0361450717807
300.0360384359985
300.035808716767
300.0354107529929
300.0347906863087
300.0338792127091
300.0325995183724
300.0308805949527
300.0286603896668
300.0258856048487
300.0225139681896
300.0185179581299
300.013888002947
300.0086348032381
300.0027927983293
299.9964332125862
299.9896859979077
299.9827675797719
299.9761007279718
299.9705580958636
299.9671867443364
299.9659147144393
299.9657180869909
299.9657654199826
299.9658864336618
299.9661536104236
299.9666004956546
299.9672793340911
299.9682567888622
299.9696003047625
299.9713678981287
299.9736079563684
299.9763603144873
299.979654616705
299.9835077191466
299.9879215386972
299.9928815511838
299.9983556756951
300.0042881742978
300.0105837183449
300.0170880673182
300.0235324967999
300.0293464002323
300.0335333283637
300.0355653644427
300.0360575903223
300.036060694706
300.0359619752054
300.0357596132603
300.0354068283062
300.0348567420082
300.0340476383436
300.0329050573895
300.0313564712378
300.0293363783584
300.026786267518
300.0236574518245
300.0199159772845
300.0155457623789
300.0105502019652
300.0049541915531
299.9988119423055
299.9922287765888
299.9853883922564
299.9786195756168
299.9726067384356
299.9684493096266
299.9665942910022
299.9661571023758
299.9661596329158
299.9662620142385
299.9664909436895
299.966887721484
299.9674928519702
299.9683665187857
299.9695757535738
299.9711815637688
299.9732364326935
299.9757846230985
299.9788602955589
299.9824848243277
299.9866649506905
299.9913916694229
299.9966400760374
300.0023663577529
300.008493147072
300.0148903710289
300.0213450719095
300.0274244183139
300.0322564568773
300.0349748320365
300.0359049227167
300.0359887388472
300.0359049461208
300.0357326897427
300.0354131544667
300.034914221209
300.0341864253211
300.0331618960813
300.0317676318858
300.0299344448499
300.0275987468561
300.0247055229545
300.0212136233229
300.0170999868434
300.0123616586099
300.0070164968386
300.0011063244638
299.9947147038183
299.9879950598839
299.9812087109138
299.974881505328
299.9700096147301
299.9674430430985
299.9666363368626
299.9665475723887
299.9666339195091
299.9668228640114
299.9671803920181
299.9677291749673
299.9685190464256
299.9696117695743
299.9710684976646
299.972945731415
299.9752946673975
299.9781570377162
299.9815601901951
299.9855150603273
299.9900161228022
299.9950419559647
300.0005552371874
300.006494225094
300.0127530316337
300.0191563933582
300.0253725770747
300.0307102002391
300.0341914952414
300.0356282189172
300.0359138113935
300.0358766744862
300.0357289370561
300.0354409988857
300.0349814780107
300.0343130817442
300.0333800640688
300.0321167922125
300.030455750801
300.0283287350768
300.0256707171898
300.0224286796198
300.018569797761
300.0140845292728
300.0089863394886
300.0033116901828
299.9971290502739
299.9905632410405
299.9838269389929
299.9773240528609
299.9718710539898
299.9684985890995
299.9672216793959
299.9669710781532
299.966987815077
299.9671428094228
299.9674576400295
299.9679612127413
299.9686899251166
299.9696942861947
299.9710277543318
299.9727437604134
299.9748974436993
299.9775416578538
299.9807173595843
299.984445882971
299.9887270321743
299.9935406339288
299.9988494307081
300.0045977511773
300.0106956639847
300.0169983795212
300.0232573557927
300.0289446342391
300.0331322723816
300.0351991585753
300.0357917623968
300.0358529671333
300.0357521769219
300.0355146014422
300.0350912234831
300.0344619441878
300.0335882142057
300.032419310903
300.0308972794402
300.0289576001915
300.0265305265211
300.0235485085613
300.0199582075913
300.0157321581977
300.0108754258166
300.0054244830743
299.9994445228524
299.9930455349124
299.9864080494407
299.979837895808
299.9739724756514
299.9698454994169
299.967955985223
299.9674604926486
299.9673821949743
299.9674689330495
299.9677139511761
299.9681622810742
299.9688428015328
299.9697908028264
299.971042891021
299.972636892503
299.974618539904
299.9770443645643
299.9799733055363
299.9834510927902
299.9874968282479
299.992098154248
299.9972152076386
300.0027886803761
300.0087344341218
300.0149233431878
300.021157327099
300.0270438425105
300.0317865242575
300.0345804049587
300.0355731072638
300.0357441193862
300.0357493743467
300.0356003356806
300.035258967713
300.034685295819
300.0338475798083
300.032717519347
300.0312677457894
300.0294612203836
300.0272403773934
300.0245281275119
300.0212427004763
300.0173192527516
300.0127299832115
300.0074989874697
300.0016999096298
299.9954497689106
299.9889204215808
299.982355487897
299.9762295129474
299.9714732125069
299.9688594602266
299.9680126677879
299.9678825654414
299.9678877731676
299.9680356848727
299.96836872305
299.9689373494865
299.9697971874722
299.9709933784436
299.9725487772469
299.9744670783813
299.9767473124683
299.9794054833372
299.9825032960449
299.986162713097
299.9905248011158
299.9956607888666
300.0014632681817
300.0075975988274
300.0132230610803
300.0188915634247
)
;

boundaryField
{
    inlet
    {
        type            fixedValue;
        value           uniform 300;
    }
    outlet
    {
        type            temperatureOutletNSCBC;
        pInf            101325;
        gamma           1.4;
        etaAc           1;
        fieldInf        1;
        lInf            2.25;
        value           uniform 300.0216072023591;
    }
    frontAndBack
    {
        type            empty;
    }
}


// ************************************************************************* //
