/*--------------------------------*- C++ -*----------------------------------*\
| =========                 |                                                 |
| \\      /  F ield         | OpenFOAM: The Open Source CFD Toolbox           |
|  \\    /   O peration     | Version:  v2012                                 |
|   \\  /    A nd           | Website:  www.openfoam.com                      |
|    \\/     M anipulation  |                                                 |
\*---------------------------------------------------------------------------*/
FoamFile
{
    version     2.0;
    format      ascii;
    class       volVectorField;
    location    "0.013";
    object      U;
}
// * * * * * * * * * * * * * * * * * * * * * * * * * * * * * * * * * * * * * //

dimensions      [0 1 -1 0 0 0 0];


internalField   nonuniform List<vector> 
1000
(
(-0.002750685529295537 0 0)
(-0.03441780530045174 0 0)
(-0.04261076139559428 0 0)
(-0.0578178269983644 0 0)
(-0.0717206639693625 0 0)
(-0.08461829959718331 0 0)
(-0.09561872351659997 0 0)
(-0.1050261163991031 0 0)
(-0.1130975311755997 0 0)
(-0.1185991377850349 0 0)
(-0.1201910293513385 0 0)
(-0.1200734954897115 0 0)
(-0.1191940156908323 0 0)
(-0.116654307845129 0 0)
(-0.1117995705346608 0 0)
(-0.104443713529535 0 0)
(-0.09485726306511606 0 0)
(-0.08346380980709567 0 0)
(-0.07062398850982016 0 0)
(-0.05659220888369226 0 0)
(-0.04157447333212728 0 0)
(-0.02579097650835955 0 0)
(-0.00950359356625975 0 0)
(0.006987749951977621 0 0)
(0.02336086107865171 0 0)
(0.03928934435110493 0 0)
(0.05447743438937722 0 0)
(0.0687324061031717 0 0)
(0.08203591870801813 0 0)
(0.09445131949050511 0 0)
(0.1056212225458354 0 0)
(0.1139432167322299 0 0)
(0.1175218254320877 0 0)
(0.1179269613348236 0 0)
(0.1178038365153407 0 0)
(0.1171266493066869 0 0)
(0.1153176512742984 0 0)
(0.1117498880599693 0 0)
(0.1059285125154822 0 0)
(0.09762485749966475 0 0)
(0.08694174858477317 0 0)
(0.07425178016077237 0 0)
(0.06004857254415787 0 0)
(0.04479833895190755 0 0)
(0.02886518402847944 0 0)
(0.01252268304969788 0 0)
(-0.003987703592899467 0 0)
(-0.02040798791909988 0 0)
(-0.03646843944399294 0 0)
(-0.05195090660335581 0 0)
(-0.06676042019594892 0 0)
(-0.0809049248394743 0 0)
(-0.09424398298097784 0 0)
(-0.1058675078395872 0 0)
(-0.1136193805058014 0 0)
(-0.1162883787372078 0 0)
(-0.1164827630843035 0 0)
(-0.1163407393397543 0 0)
(-0.1157333981357 0 0)
(-0.1141570816630989 0 0)
(-0.1110999145361485 0 0)
(-0.1060802259259138 0 0)
(-0.09876462590157052 0 0)
(-0.08904948518778864 0 0)
(-0.07709303689533931 0 0)
(-0.06327335223646467 0 0)
(-0.04808856838560883 0 0)
(-0.03204590276610007 0 0)
(-0.01558399358513393 0 0)
(0.0009566690143332843 0 0)
(0.0173290528575726 0 0)
(0.03336518497951655 0 0)
(0.04897182362659992 0 0)
(0.06413003148666842 0 0)
(0.07883043450377662 0 0)
(0.0927897178690717 0 0)
(0.1048166370497966 0 0)
(0.1125489713076551 0 0)
(0.1150575768796545 0 0)
(0.1152241699067384 0 0)
(0.1151308626032863 0 0)
(0.1146067820594666 0 0)
(0.1132840709561029 0 0)
(0.110690479291589 0 0)
(0.1063795025990982 0 0)
(0.09997989128338894 0 0)
(0.09127221285851425 0 0)
(0.08024113226375931 0 0)
(0.06709337978018307 0 0)
(0.05222647922593247 0 0)
(0.03615141391785416 0 0)
(0.01939586554219343 0 0)
(0.002422945871949627 0 0)
(-0.0144184195333456 0 0)
(-0.03091848721156902 0 0)
(-0.04700991292003002 0 0)
(-0.06272234542827747 0 0)
(-0.07802918515919127 0 0)
(-0.0924859251633524 0 0)
(-0.1046118227742976 0 0)
(-0.1119490530147676 0 0)
(-0.1141039636079471 0 0)
(-0.1142299028205097 0 0)
(-0.1141007843108279 0 0)
(-0.1136174417148255 0 0)
(-0.1123765768285493 0 0)
(-0.1099846785873234 0 0)
(-0.10602672567048 0 0)
(-0.1001452683976921 0 0)
(-0.09209449828279094 0 0)
(-0.08179333421828894 0 0)
(-0.06935332456174095 0 0)
(-0.05507229196939593 0 0)
(-0.03939304514166424 0 0)
(-0.0228317798238267 0 0)
(-0.005888141377885668 0 0)
(0.01103830487721027 0 0)
(0.02769711930160838 0 0)
(0.04398918795506365 0 0)
(0.05991946926264491 0 0)
(0.07546022233590174 0 0)
(0.09020349376551785 0 0)
(0.1027308734415592 0 0)
(0.1105721474163043 0 0)
(0.1130573092265812 0 0)
(0.1132344451136287 0 0)
(0.1131706849085056 0 0)
(0.1127623932481492 0 0)
(0.1117279457630598 0 0)
(0.1096756884512244 0 0)
(0.1062224921460966 0 0)
(0.1010085443846435 0 0)
(0.09375103833496344 0 0)
(0.08429014447886302 0 0)
(0.07262944215580788 0 0)
(0.05895490667613527 0 0)
(0.04361880288149653 0 0)
(0.02708783529970558 0 0)
(0.009868139212384254 0 0)
(-0.007578716007195464 0 0)
(-0.02491290694465392 0 0)
(-0.04195731833354388 0 0)
(-0.05865677182257113 0 0)
(-0.07489726596182585 0 0)
(-0.09012349976720128 0 0)
(-0.102703023096855 0 0)
(-0.1101676238058853 0 0)
(-0.1123298500413411 0 0)
(-0.1124534768553568 0 0)
(-0.1123179156640385 0 0)
(-0.1118998719044386 0 0)
(-0.1108635296949309 0 0)
(-0.1088895480645372 0 0)
(-0.1056240227587323 0 0)
(-0.100735096067548 0 0)
(-0.09394783374036647 0 0)
(-0.08508598927843879 0 0)
(-0.07410748479804102 0 0)
(-0.06112602236431745 0 0)
(-0.04641021679653291 0 0)
(-0.03035417118174455 0 0)
(-0.01341950169980527 0 0)
(0.003939569638540349 0 0)
(0.02135222680805817 0 0)
(0.03858268494195465 0 0)
(0.05550646824231847 0 0)
(0.07198330439671199 0 0)
(0.08749830878866351 0 0)
(0.1005216938440253 0 0)
(0.1087268266066479 0 0)
(0.1113917795675732 0 0)
(0.111625908820986 0 0)
(0.1113994269252508 0 0)
(0.110951577816108 0 0)
(0.1100350680718604 0 0)
(0.10834614032091 0 0)
(0.1055429098770776 0 0)
(0.101279586890457 0 0)
(0.09524185716316284 0 0)
(0.08719139708754399 0 0)
(0.07700429750353389 0 0)
(0.06469906044312497 0 0)
(0.0504511552709114 0 0)
(0.03458478470581071 0 0)
(0.01753097354554567 0 0)
(-0.0002424569289731131 0 0)
(-0.01831112411580795 0 0)
(-0.03635002184572723 0 0)
(-0.05411941739676011 0 0)
(-0.07133677481765448 0 0)
(-0.08724368789723262 0 0)
(-0.1002294069938506 0 0)
(-0.1078321078749092 0 0)
(-0.1099187102726661 0 0)
(-0.1100218421946985 0 0)
(-0.1096420758814239 0 0)
(-0.1089569990272083 0 0)
(-0.1079157639775549 0 0)
(-0.1062172573835225 0 0)
(-0.1035318709835892 0 0)
(-0.09953938026844474 0 0)
(-0.09394332384373515 0 0)
(-0.08650243473089451 0 0)
(-0.07707301981869555 0 0)
(-0.06564129538655369 0 0)
(-0.05233546766535126 0 0)
(-0.03741583773867499 0 0)
(-0.02124212143339776 0 0)
(-0.004218468215723642 0 0)
(0.01327054679172408 0 0)
(0.03090924600418407 0 0)
(0.04846474369824248 0 0)
(0.06565797612801477 0 0)
(0.08176836828633635 0 0)
(0.09528004620944627 0 0)
(0.1040906722409658 0 0)
(0.1073971936782404 0 0)
(0.1078210198491686 0 0)
(0.1075889590917923 0 0)
(0.1070497220116334 0 0)
(0.1061589421067223 0 0)
(0.1046768138464159 0 0)
(0.1023332899287542 0 0)
(0.09882644988755503 0 0)
(0.09383940359345025 0 0)
(0.08708721873821071 0 0)
(0.0783694837666519 0 0)
(0.0676054922269184 0 0)
(0.0548491929386043 0 0)
(0.0402877175194413 0 0)
(0.02422024836190233 0 0)
(0.007013571606527467 0 0)
(-0.0109504966947098 0 0)
(-0.02931136392183657 0 0)
(-0.04773636301584654 0 0)
(-0.06580004307041086 0 0)
(-0.08259002473021483 0 0)
(-0.09634954710104883 0 0)
(-0.1049015456988024 0 0)
(-0.1078706027439235 0 0)
(-0.1082052434521415 0 0)
(-0.1079228458775824 0 0)
(-0.1073147784993909 0 0)
(-0.1063386495885587 0 0)
(-0.1047754099368629 0 0)
(-0.1023858030155035 0 0)
(-0.09890181550293925 0 0)
(-0.09403769008901361 0 0)
(-0.08752968868404498 0 0)
(-0.07918154175157438 0 0)
(-0.06889840949243831 0 0)
(-0.05670588656831439 0 0)
(-0.04275302627433888 0 0)
(-0.02729572913065891 0 0)
(-0.01065860031958481 0 0)
(0.006811980006389396 0 0)
(0.02477631901802158 0 0)
(0.04290671742072242 0 0)
(0.0608246732926206 0 0)
(0.07779291677532428 0 0)
(0.0923265656561819 0 0)
(0.102358960593427 0 0)
(0.1066833795145233 0 0)
(0.1073835282195302 0 0)
(0.1072407586785548 0 0)
(0.1067084291739236 0 0)
(0.1058686201403659 0 0)
(0.1044802772525472 0 0)
(0.1023322595546118 0 0)
(0.09918649661203029 0 0)
(0.09477631899567329 0 0)
(0.08883017892692099 0 0)
(0.08111405283792975 0 0)
(0.07147084972326855 0 0)
(0.05984848779233214 0 0)
(0.04631458270735596 0 0)
(0.0310531045155644 0 0)
(0.01433911155617952 0 0)
(-0.003496795369132434 0 0)
(-0.02209033496062896 0 0)
(-0.04104821409592716 0 0)
(-0.05988431404935041 0 0)
(-0.07768967579311559 0 0)
(-0.09268799180441521 0 0)
(-0.1025677383583282 0 0)
(-0.1064815290308467 0 0)
(-0.1070495939676689 0 0)
(-0.1068624158750614 0 0)
(-0.1063227566407892 0 0)
(-0.1054474973187183 0 0)
(-0.1040264479814556 0 0)
(-0.1018628810153954 0 0)
(-0.09873642136441922 0 0)
(-0.09440295573261297 0 0)
(-0.08861894509597674 0 0)
(-0.08117461822060425 0 0)
(-0.07192362075603226 0 0)
(-0.06080737245620045 0 0)
(-0.04787150621030117 0 0)
(-0.03326777912369061 0 0)
(-0.0172356556538729 0 0)
(-7.030939250499088e-05 0 0)
(0.01789970800467856 0 0)
(0.03631857109800891 0 0)
(0.05477912828758115 0 0)
(0.07258295822185848 0 0)
(0.08827312993697863 0 0)
(0.09970998201847928 0 0)
(0.105310112939522 0 0)
(0.1064807895451174 0 0)
(0.1064466697605871 0 0)
(0.1059763851909468 0 0)
(0.1052355181403165 0 0)
(0.103979731991675 0 0)
(0.1020315102322906 0 0)
(0.09919477227603468 0 0)
(0.09524309688163005 0 0)
(0.08993165903519014 0 0)
(0.08302873781155848 0 0)
(0.07434724133198775 0 0)
(0.06377002600840886 0 0)
(0.05127073494338556 0 0)
(0.0369265282912165 0 0)
(0.02091413440014683 0 0)
(0.003491329552095969 0 0)
(-0.01501514995743492 0 0)
(-0.03420913568343389 0 0)
(-0.05359192025434183 0 0)
(-0.07230452166079081 0 0)
(-0.08860288509432379 0 0)
(-0.1000181215803261 0 0)
(-0.1051853139615293 0 0)
(-0.1061548355425028 0 0)
(-0.1060786701864076 0 0)
(-0.1056138251395546 0 0)
(-0.1048489025063582 0 0)
(-0.1035673947364524 0 0)
(-0.1016046420603029 0 0)
(-0.09877388313052736 0 0)
(-0.09486282093810766 0 0)
(-0.08965080816016385 0 0)
(-0.08293467275645773 0 0)
(-0.07455044687858681 0 0)
(-0.0643927766325806 0 0)
(-0.05243375466770898 0 0)
(-0.03873616342303306 0 0)
(-0.02345279622123753 0 0)
(-0.006810207233136533 0 0)
(0.01090700650420925 0 0)
(0.02935685713921551 0 0)
(0.04812893927519162 0 0)
(0.06658756870390248 0 0)
(0.08338598935125051 0 0)
(0.09632977386585642 0 0)
(0.1034782113217011 0 0)
(0.1054204843802035 0 0)
(0.1055153397124251 0 0)
(0.1051594372312741 0 0)
(0.1045162251500518 0 0)
(0.1034026838104955 0 0)
(0.101648285061917 0 0)
(0.09908526915313963 0 0)
(0.09551812227904009 0 0)
(0.09072622331811023 0 0)
(0.08449039690281633 0 0)
(0.07661705696694281 0 0)
(0.06695698405275009 0 0)
(0.05542447510869908 0 0)
(0.04201580609181994 0 0)
(0.02681885140398235 0 0)
(0.01000970656151209 0 0)
(-0.008149150113484386 0 0)
(-0.02729810962935907 0 0)
(-0.04695663844818077 0 0)
(-0.06634895107239179 0 0)
(-0.08386921954741718 0 0)
(-0.09695190462044684 0 0)
(-0.103691040365992 0 0)
(-0.105340545104492 0 0)
(-0.105393152276605 0 0)
(-0.1050263903995312 0 0)
(-0.1043743135376828 0 0)
(-0.1032374807681688 0 0)
(-0.1014663532576263 0 0)
(-0.09889879595227173 0 0)
(-0.09534658393814373 0 0)
(-0.09060983278582239 0 0)
(-0.08449811653554742 0 0)
(-0.07684542563174231 0 0)
(-0.0675236518117637 0 0)
(-0.05645965988304894 0 0)
(-0.04365226260634329 0 0)
(-0.02918101284888833 0 0)
(-0.01320164605868919 0 0)
(0.004060863364330087 0 0)
(0.02230529558517103 0 0)
(0.04114190028786178 0 0)
(0.06000701359621164 0 0)
(0.07774125588771959 0 0)
(0.09218234110661436 0 0)
(0.1010790306880209 0 0)
(0.104183668492533 0 0)
(0.1045001885835923 0 0)
(0.104265020429687 0 0)
(0.1037339534588667 0 0)
(0.1027750553823607 0 0)
(0.1012136240646989 0 0)
(0.09890035858473098 0 0)
(0.09566502042806573 0 0)
(0.09131086700806058 0 0)
(0.08563564166884498 0 0)
(0.07844955002819178 0 0)
(0.06958901081648365 0 0)
(0.05893333614178026 0 0)
(0.04642381472638088 0 0)
(0.03207898869783995 0 0)
(0.01600054761712214 0 0)
(-0.001620734990115086 0 0)
(-0.02048495357557337 0 0)
(-0.04015703505414196 0 0)
(-0.05995916699051512 0 0)
(-0.07850519395752509 0 0)
(-0.09325589140456854 0 0)
(-0.1017849657870813 0 0)
(-0.1044905700096812 0 0)
(-0.1047382398243546 0 0)
(-0.1044780721038849 0 0)
(-0.1039508810598631 0 0)
(-0.1029723161659934 0 0)
(-0.1013974989624464 0 0)
(-0.09907981949978191 0 0)
(-0.09585014354105925 0 0)
(-0.09152649630502682 0 0)
(-0.0859323023159512 0 0)
(-0.07890671080219724 0 0)
(-0.07031337878241742 0 0)
(-0.06005424355137882 0 0)
(-0.04808579393729483 0 0)
(-0.03443170630046721 0 0)
(-0.01918641683325061 0 0)
(-0.002514765075771669 0 0)
(0.01533707417509246 0 0)
(0.03402257247577289 0 0)
(0.05304814447994887 0 0)
(0.07146823277196662 0 0)
(0.08729390029759332 0 0)
(0.09801097561237924 0 0)
(0.1026466358345772 0 0)
(0.1033949051938654 0 0)
(0.1032809600415022 0 0)
(0.1028742749188696 0 0)
(0.1020783879007113 0 0)
(0.1007134618231782 0 0)
(0.09864149279599065 0 0)
(0.09571199598034025 0 0)
(0.09174643683588225 0 0)
(0.08655733915138913 0 0)
(0.0799642467986842 0 0)
(0.07180225720991722 0 0)
(0.06193341225556195 0 0)
(0.05026371182130008 0 0)
(0.03676071894353258 0 0)
(0.02146558441905932 0 0)
(0.004502923804444624 0 0)
(-0.01389551252202567 0 0)
(-0.03335533977955209 0 0)
(-0.05329002613733139 0 0)
(-0.07256162434304335 0 0)
(-0.08885315460660802 0 0)
(-0.09934486360507915 0 0)
(-0.1034825910190469 0 0)
(-0.1041024182813259 0 0)
(-0.103955989630103 0 0)
(-0.1035557704172233 0 0)
(-0.1027428703974951 0 0)
(-0.101364561444432 0 0)
(-0.09928759446345263 0 0)
(-0.09635823395835308 0 0)
(-0.09240659985248044 0 0)
(-0.08726729627249184 0 0)
(-0.08078823358592725 0 0)
(-0.07283389507983784 0 0)
(-0.06329428822809668 0 0)
(-0.05209939799455311 0 0)
(-0.03923332362959402 0 0)
(-0.024742505088197 0 0)
(-0.008737883636926692 0 0)
(0.008593078589835153 0 0)
(0.02695710102836846 0 0)
(0.04592052327947577 0 0)
(0.06472825584726745 0 0)
(0.08170933873433961 0 0)
(0.09423229755894277 0 0)
(0.1006489196572871 0 0)
(0.1021904596644932 0 0)
(0.1022104221460333 0 0)
(0.1019359160418631 0 0)
(0.1013112664421109 0 0)
(0.1001483037907813 0 0)
(0.09831705426165244 0 0)
(0.09567984449373243 0 0)
(0.09207071521623068 0 0)
(0.08731519316892415 0 0)
(0.08124544074034153 0 0)
(0.07370215794168104 0 0)
(0.06454023575090249 0 0)
(0.05364440193965488 0 0)
(0.04094776845099492 0 0)
(0.02644618247333261 0 0)
(0.01020875951769459 0 0)
(-0.007598330852149659 0 0)
(-0.02666899450462343 0 0)
(-0.04650689566581475 0 0)
(-0.06620729349735026 0 0)
(-0.08379837782368284 0 0)
(-0.09626370627465679 0 0)
(-0.1021354377144558 0 0)
(-0.1034289389631536 0 0)
(-0.1034044019423579 0 0)
(-0.1031315594946829 0 0)
(-0.1024935359410169 0 0)
(-0.1013247786926672 0 0)
(-0.0994953334087175 0 0)
(-0.09686008241356903 0 0)
(-0.09325767819924928 0 0)
(-0.08853217258512509 0 0)
(-0.08254151294181111 0 0)
(-0.07515588705513224 0 0)
(-0.06626191924862306 0 0)
(-0.05577487504512279 0 0)
(-0.0436525965249912 0 0)
(-0.02990557639468768 0 0)
(-0.01460117819819917 0 0)
(0.002124019279742383 0 0)
(0.02003269699202881 0 0)
(0.03875680474418153 0 0)
(0.05769668994566942 0 0)
(0.07553258386151461 0 0)
(0.08972679676398819 0 0)
(0.09803819285040573 0 0)
(0.1008026811822908 0 0)
(0.1010439251162926 0 0)
(0.1008789756405107 0 0)
(0.1004385470015777 0 0)
(0.09948332796977086 0 0)
(0.09789656334060656 0 0)
(0.09554644118886457 0 0)
(0.09227711405880558 0 0)
(0.08792364668862213 0 0)
(0.08232809103938625 0 0)
(0.0753396101286157 0 0)
(0.06681474547402817 0 0)
(0.05662847889584906 0 0)
(0.04469148021014833 0 0)
(0.03096607477655675 0 0)
(0.01547802700166628 0 0)
(-0.001663443572005835 0 0)
(-0.02022183981570513 0 0)
(-0.03978323531551674 0 0)
(-0.05961854444007355 0 0)
(-0.07815356327651968 0 0)
(-0.09250612893606944 0 0)
(-0.1003354872488142 0 0)
(-0.1026723579794731 0 0)
(-0.1028349200478943 0 0)
(-0.1026830006692617 0 0)
(-0.1022149865992094 0 0)
(-0.1012518262852979 0 0)
(-0.09966583636797402 0 0)
(-0.09731889642715459 0 0)
(-0.09405424398688046 0 0)
(-0.08971986025367767 0 0)
(-0.0841803215604673 0 0)
(-0.07731253728290274 0 0)
(-0.06900494015056081 0 0)
(-0.05916663146906493 0 0)
(-0.04773981575490899 0 0)
(-0.034709945506756 0 0)
(-0.02011194786989855 0 0)
(-0.004039256696643437 0 0)
(0.01332856003453645 0 0)
(0.03168686167834963 0 0)
(0.05053755753092178 0 0)
(0.06887785118092939 0 0)
(0.08452915498772762 0 0)
(0.09479258527313057 0 0)
(0.09907912808826423 0 0)
(0.09977175105548719 0 0)
(0.09974353668294418 0 0)
(0.0994533139255946 0 0)
(0.09871146630806418 0 0)
(0.09737222509670039 0 0)
(0.09530881699174909 0 0)
(0.09237226146809192 0 0)
(0.08840036138934407 0 0)
(0.08324194278746319 0 0)
(0.07675776178009627 0 0)
(0.06881230446641409 0 0)
(0.05927796718682155 0 0)
(0.0480516275357695 0 0)
(0.03507220990298782 0 0)
(0.02033318300357616 0 0)
(0.00389760618458876 0 0)
(-0.01406298705041171 0 0)
(-0.03321142695845827 0 0)
(-0.05295490189026533 0 0)
(-0.07208920350973884 0 0)
(-0.08808778921122325 0 0)
(-0.09797270726013321 0 0)
(-0.1017027943887498 0 0)
(-0.1022387074061087 0 0)
(-0.1021861480988799 0 0)
(-0.1018703252090786 0 0)
(-0.1011166134195104 0 0)
(-0.09977711613379289 0 0)
(-0.09771941386746652 0 0)
(-0.09478916788187484 0 0)
(-0.09083409264177614 0 0)
(-0.08572180094516745 0 0)
(-0.07933575690842744 0 0)
(-0.07156901052042394 0 0)
(-0.06232910185598212 0 0)
(-0.05154921824092179 0 0)
(-0.03919865296354886 0 0)
(-0.02528953285548361 0 0)
(-0.009881986062327519 0 0)
(0.00689258786116774 0 0)
(0.02478480881925936 0 0)
(0.04338386824927969 0 0)
(0.06194229713247418 0 0)
(0.07873062563274758 0 0)
(0.09087241966549127 0 0)
(0.09691046363146431 0 0)
(0.09839331203624929 0 0)
(0.09851301246341608 0 0)
(0.09835179005048746 0 0)
(0.09782459639489507 0 0)
(0.09673431236049586 0 0)
(0.09495585016565684 0 0)
(0.09234571487704109 0 0)
(0.08874525227205105 0 0)
(0.08400571903340825 0 0)
(0.07799461417198579 0 0)
(0.07058448190992149 0 0)
(0.06165095885402333 0 0)
(0.05108554897209142 0 0)
(0.03881251480130486 0 0)
(0.02480254637585429 0 0)
(0.009084100043557624 0 0)
(-0.008226888576400256 0 0)
(-0.02686469059693046 0 0)
(-0.04634634291810919 0 0)
(-0.06574865370018267 0 0)
(-0.08302450933320751 0 0)
(-0.09499029152485912 0 0)
(-0.1004140270217295 0 0)
(-0.1016275973795198 0 0)
(-0.1016542254416045 0 0)
(-0.1014820348883963 0 0)
(-0.1009246482020179 0 0)
(-0.09982373575858833 0 0)
(-0.09805090372410662 0 0)
(-0.09545197573600499 0 0)
(-0.09187086112185815 0 0)
(-0.08717352664328872 0 0)
(-0.08124706425555321 0 0)
(-0.07398901003884703 0 0)
(-0.0653076342479926 0 0)
(-0.05513182505114338 0 0)
(-0.04342121199836024 0 0)
(-0.03017237628670708 0 0)
(-0.01542275419054807 0 0)
(0.000732958727029805 0 0)
(0.01810111451587811 0 0)
(0.03634704256274662 0 0)
(0.05488261189044745 0 0)
(0.0724007797778129 0 0)
(0.08627049387601077 0 0)
(0.09420534958890824 0 0)
(0.0968605133085145 0 0)
(0.09715985820806851 0 0)
(0.09714736473905339 0 0)
(0.09680878443831964 0 0)
(0.09596122150659064 0 0)
(0.09446869915878708 0 0)
(0.09218700623570771 0 0)
(0.08895719285624362 0 0)
(0.0846276276596729 0 0)
(0.07906822130814084 0 0)
(0.07216071963739253 0 0)
(0.06378865604426043 0 0)
(0.05384298324454857 0 0)
(0.0422384523965469 0 0)
(0.02892930829882399 0 0)
(0.01391996999688464 0 0)
(-0.002714367398911708 0 0)
(-0.02077442062466262 0 0)
(-0.03987112878914979 0 0)
(-0.05928350533154636 0 0)
(-0.07743894064810633 0 0)
(-0.09136469154673481 0 0)
(-0.09873280911389415 0 0)
(-0.100947440418896 0 0)
(-0.1011033369786288 0 0)
(-0.1010672866073114 0 0)
(-0.1006883422435656 0 0)
(-0.09981863562510992 0 0)
(-0.09832085425722956 0 0)
(-0.09604424041066187 0 0)
(-0.09282802726354704 0 0)
(-0.08853386076697461 0 0)
(-0.08304970986743807 0 0)
(-0.07627646250194027 0 0)
(-0.06812365717140369 0 0)
(-0.05851742874720402 0 0)
(-0.04741044183804149 0 0)
(-0.03478896232540977 0 0)
(-0.02067702151525188 0 0)
(-0.005143529311766023 0 0)
(0.01166646372687854 0 0)
(0.02947615466409779 0 0)
(0.04780805945183767 0 0)
(0.06570694601825192 0 0)
(0.08103557305852731 0 0)
(0.09091840037593187 0 0)
(0.0950239457958218 0 0)
(0.09573058762695108 0 0)
(0.09585533423909441 0 0)
(0.09566576972366472 0 0)
(0.09505879850744424 0 0)
(0.09384369511990127 0 0)
(0.09188218482433758 0 0)
(0.089015397751492 0 0)
(0.08508736512625251 0 0)
(0.07996810770683539 0 0)
(0.07354525458193981 0 0)
(0.06570863360441272 0 0)
(0.05635105063614584 0 0)
(0.04538224353345819 0 0)
(0.03274476180326695 0 0)
(0.01842641976000412 0 0)
(0.002472687916649649 0 0)
(-0.01497421135776241 0 0)
(-0.0335994547558553 0 0)
(-0.05282173882839345 0 0)
(-0.07146656598160488 0 0)
(-0.08705214418546957 0 0)
(-0.09651663611905464 0 0)
(-0.1000361836095704 0 0)
(-0.1005802637646825 0 0)
(-0.1006230070984598 0 0)
(-0.1003862301561178 0 0)
(-0.09973350390034594 0 0)
(-0.09849690205404096 0 0)
(-0.09653141816876724 0 0)
(-0.09367201762778812 0 0)
(-0.0897724150475228 0 0)
(-0.0847187220688695 0 0)
(-0.07841551388184217 0 0)
(-0.07077444155653144 0 0)
(-0.06171866861404966 0 0)
(-0.05119405888050901 0 0)
(-0.03917807632129001 0 0)
(-0.02568387364244339 0 0)
(-0.01076288254958876 0 0)
(0.005472607463957259 0 0)
(0.02279680407287086 0 0)
(0.04082089631701302 0 0)
(0.05882711830682628 0 0)
(0.07517961585590344 0 0)
(0.08698648222421222 0 0)
(0.09276361228983208 0 0)
(0.09429454186019159 0 0)
(0.09447047377366258 0 0)
(0.09443618191045315 0 0)
(0.0940393177745991 0 0)
(0.09309266959355872 0 0)
(0.09144669533581638 0 0)
(0.08893886961563395 0 0)
(0.08540782495084213 0 0)
(0.08071747642480995 0 0)
(0.07475718740217395 0 0)
(0.06742580475489093 0 0)
(0.05862383725554094 0 0)
(0.04826012260853509 0 0)
(0.03626728476232589 0 0)
(0.02261756442285059 0 0)
(0.007334458177422633 0 0)
(-0.009479933875404101 0 0)
(-0.02757636405866286 0 0)
(-0.04648515048555853 0 0)
(-0.06531722185539875 0 0)
(-0.08211251510926647 0 0)
(-0.09370047565967737 0 0)
(-0.09883913892804665 0 0)
(-0.1000650976387918 0 0)
(-0.1001155136231686 0 0)
(-0.1000389568514343 0 0)
(-0.09958107322173224 0 0)
(-0.09859556580866652 0 0)
(-0.09693292605843348 0 0)
(-0.09442075344478702 0 0)
(-0.09090278498284518 0 0)
(-0.08626255670958589 0 0)
(-0.08040988268332107 0 0)
(-0.07326177718521788 0 0)
(-0.06474102309604469 0 0)
(-0.05478659972496858 0 0)
(-0.04336414808673028 0 0)
(-0.03047351839337821 0 0)
(-0.01615349920099476 0 0)
(-0.0004928876957088327 0 0)
(0.01632985636512672 0 0)
(0.03398830685135235 0 0)
(0.05190382728706269 0 0)
(0.06886292798655186 0 0)
(0.08241584099931641 0 0)
(0.09007135534353972 0 0)
(0.09270181361063384 0 0)
(0.09299939817847996 0 0)
(0.09312158929136959 0 0)
(0.09289513331633277 0 0)
(0.09220936133640249 0 0)
(0.09087610223242484 0 0)
(0.08872945505264576 0 0)
(0.08559298631498388 0 0)
(0.08132101739664716 0 0)
(0.07580610288030971 0 0)
(0.06895756947624315 0 0)
(0.06068557423194944 0 0)
(0.05090259830190058 0 0)
(0.0395352994254133 0 0)
(0.02654057371138466 0 0)
(0.01192177613486399 0 0)
(-0.00425243766102349 0 0)
(-0.02179572280990736 0 0)
(-0.04031941677745197 0 0)
(-0.05910751646578915 0 0)
(-0.07667928961259489 0 0)
(-0.09022958632419568 0 0)
(-0.09731351764547563 0 0)
(-0.09943811328623355 0 0)
(-0.09962659246010379 0 0)
(-0.09965521191416585 0 0)
(-0.09936064753698784 0 0)
(-0.09861645233585091 0 0)
(-0.09725368680772181 0 0)
(-0.09509397651529504 0 0)
(-0.09196080322640306 0 0)
(-0.08772254762758062 0 0)
(-0.08229139201758763 0 0)
(-0.07559862250691811 0 0)
(-0.06757901934372514 0 0)
(-0.05817263999724475 0 0)
(-0.04733514027912532 0 0)
(-0.03504920492777224 0 0)
(-0.02133386587961063 0 0)
(-0.006253259783727462 0 0)
(0.01005221042075076 0 0)
(0.02730569264008883 0 0)
(0.04503174899492024 0 0)
(0.06231941907960905 0 0)
(0.07720071211421235 0 0)
(0.08685106670602152 0 0)
(0.09077717093537767 0 0)
(0.09158826051361524 0 0)
(0.09168154359717991 0 0)
(0.09159907903890416 0 0)
(0.0911440574610967 0 0)
(0.09012121647305392 0 0)
(0.08834825302296526 0 0)
(0.08562662807527746 0 0)
(0.08178657847113104 0 0)
(0.07670853287611448 0 0)
(0.07031023274691126 0 0)
(0.06252387767308189 0 0)
(0.05328203601529152 0 0)
(0.04251721572095296 0 0)
(0.03017448769916777 0 0)
(0.0162324211543089 0 0)
(0.0007240054025865845 0 0)
(-0.01622198398440717 0 0)
(-0.03429674898641777 0 0)
(-0.05292140705326213 0 0)
(-0.07096649464871742 0 0)
(-0.08609116531511675 0 0)
(-0.09531198934869498 0 0)
(-0.09865788325120586 0 0)
(-0.09926814540940485 0 0)
(-0.09922050910472779 0 0)
(-0.09906078128607669 0 0)
(-0.09852218313238902 0 0)
(-0.09745369783101436 0 0)
(-0.09566111624010651 0 0)
(-0.09293905489943668 0 0)
(-0.08912402641922709 0 0)
(-0.0841105420565965 0 0)
(-0.07783598679838982 0 0)
(-0.07025921010401817 0 0)
(-0.06134513862603422 0 0)
(-0.05105931481026701 0 0)
(-0.03937453817126749 0 0)
(-0.02628601033980153 0 0)
(-0.0118254409538986 0 0)
(0.003914486848803593 0 0)
(0.02071922415505349 0 0)
(0.03819061273233025 0 0)
(0.05560791890117884 0 0)
(0.07143674827908809 0 0)
(0.08304115721329131 0 0)
(0.08867910905240976 0 0)
(0.09015769361166502 0 0)
(0.09021936748843629 0 0)
(0.09021201741847329 0 0)
(0.08990550225057901 0 0)
(0.08916042812334983 0 0)
(0.08776692693542297 0 0)
(0.08549755300300065 0 0)
(0.08213914593929186 0 0)
(0.07753524645305097 0 0)
(0.0715877647316588 0 0)
(0.0642384443753385 0 0)
(0.05545184603643479 0 0)
(0.04520149809801233 0 0)
(0.03345751784711559 0 0)
(0.02018826881768691 0 0)
(0.005384710658215837 0 0)
(-0.0108936323223971 0 0)
(-0.02842904991130134 0 0)
(-0.04675845743758723 0 0)
(-0.06501500382664736 0 0)
(-0.08133195911209383 0 0)
(-0.09272074919564456 0 0)
(-0.09777884301299984 0 0)
(-0.09890424440774624 0 0)
(-0.09888057596762391 0 0)
(-0.09871321992449278 0 0)
(-0.09827599756811416 0 0)
(-0.09743602327643293 0 0)
(-0.09599723354026579 0 0)
(-0.09373013014848378 0 0)
(-0.09041473396842749 0 0)
(-0.08588794636652977 0 0)
(-0.08005458077900306 0 0)
(-0.07287843039072762 0 0)
(-0.06436408153495866 0 0)
(-0.05452953073162201 0 0)
(-0.04338050423613344 0 0)
(-0.0309068080034455 0 0)
(-0.01710471747108908 0 0)
(-0.002009209901339345 0 0)
(0.01424598545853041 0 0)
(0.03134784415788662 0 0)
(0.04872869268285535 0 0)
(0.0652240442754554 0 0)
(0.07849924425226416 0 0)
(0.08617888425593796 0 0)
(0.08871265889318446 0 0)
(0.08904917774686386 0 0)
(0.08885849147355544 0 0)
(0.08856678560595903 0 0)
(0.08793179242059768 0 0)
(0.08682265799098218 0 0)
(0.08501917958844914 0 0)
(0.08225231494343321 0 0)
(0.07826785786868475 0 0)
(0.07287833025648098 0 0)
(0.06598574735234648 0 0)
(0.05757621236396891 0 0)
(0.04769169519133278 0 0)
(0.03638938508698376 0 0)
(0.02369994851438212 0 0)
(0.009612495012918642 0 0)
(-0.005896809981858799 0 0)
(-0.02275544214812276 0 0)
(-0.04063619266599973 0 0)
(-0.05886589418693283 0 0)
(-0.07600898552973262 0 0)
(-0.08931594852967288 0 0)
(-0.09649582537426049 0 0)
(-0.09860758497009607 0 0)
(-0.09880621401067592 0 0)
(-0.09858241905923271 0 0)
(-0.09814183804254961 0 0)
(-0.09731651591720926 0 0)
(-0.09601516951082087 0 0)
(-0.09408855219157186 0 0)
(-0.09132761583250953 0 0)
(-0.08749754103069336 0 0)
(-0.08237233391588299 0 0)
(-0.07577045330925826 0 0)
(-0.06760210382557903 0 0)
(-0.05792228721653785 0 0)
(-0.04694113637421831 0 0)
(-0.03491765712216139 0 0)
(-0.02192500507422832 0 0)
(-0.007792983723647283 0 0)
(0.007917801727523608 0 0)
(0.02412902414346222 0 0)
(0.04345510115759996 0 0)
)
;

boundaryField
{
    inlet
    {
        type            zeroGradient;
    }
    outlet
    {
        type            velocityOutletNSCBCx;
        pInf            101325;
        gamma           1.4;
        etaAc           1;
        fieldInf        (-1 0 0);
        lInf            2.25;
        value           uniform (0.05099176546495517 0 0);
    }
    frontAndBack
    {
        type            empty;
    }
}


// ************************************************************************* //
