/*--------------------------------*- C++ -*----------------------------------*\
| =========                 |                                                 |
| \\      /  F ield         | OpenFOAM: The Open Source CFD Toolbox           |
|  \\    /   O peration     | Version:  v2012                                 |
|   \\  /    A nd           | Website:  www.openfoam.com                      |
|    \\/     M anipulation  |                                                 |
\*---------------------------------------------------------------------------*/
FoamFile
{
    version     2.0;
    format      ascii;
    class       volVectorField;
    location    "0.013";
    object      UMean;
}
// * * * * * * * * * * * * * * * * * * * * * * * * * * * * * * * * * * * * * //

dimensions      [0 1 -1 0 0 0 0];


internalField   nonuniform List<vector> 
1000
(
(-2.692783882987528e-05 0 0)
(9.160821752222282e-07 0 0)
(1.714550313132608e-05 0 0)
(4.837067351649558e-05 0 0)
(8.499237937897178e-05 0 0)
(0.000123058049155097 0 0)
(0.0001725165596563079 0 0)
(0.0002247955670703801 0 0)
(0.0002863514298375343 0 0)
(0.0003508428529971816 0 0)
(0.0004179378138712634 0 0)
(0.00048454822957343 0 0)
(0.0005507679437344102 0 0)
(0.0006161125739160993 0 0)
(0.0006795318641388937 0 0)
(0.0007398631127642901 0 0)
(0.0007955086293797347 0 0)
(0.00084552479971853 0 0)
(0.0008888201570784794 0 0)
(0.0009248387247350425 0 0)
(0.0009528414515598284 0 0)
(0.0009723615849986895 0 0)
(0.000983055114963669 0 0)
(0.0009846277862162313 0 0)
(0.0009771545246555296 0 0)
(0.000960639045490551 0 0)
(0.0009355451947716093 0 0)
(0.0009021876516061544 0 0)
(0.0008612280644575604 0 0)
(0.0008130130267226356 0 0)
(0.0007582049550640496 0 0)
(0.0006976463668033153 0 0)
(0.000633532913188141 0 0)
(0.0005682653772427974 0 0)
(0.0005030229061696657 0 0)
(0.0004379515054604147 0 0)
(0.0003735494820581214 0 0)
(0.0003105318695629641 0 0)
(0.0002500118765945077 0 0)
(0.0001932505308778261 0 0)
(0.0001416340250037146 0 0)
(9.635047577327975e-05 0 0)
(5.844323102100214e-05 0 0)
(2.859748086250052e-05 0 0)
(7.358119113431835e-06 0 0)
(-4.999648692160554e-06 0 0)
(-8.250826079840443e-06 0 0)
(-2.403079849320374e-06 0 0)
(1.248231961518749e-05 0 0)
(3.61101884026412e-05 0 0)
(6.817496511068626e-05 0 0)
(0.0001082790487487742 0 0)
(0.0001560781967074065 0 0)
(0.0002109739009569172 0 0)
(0.0002716047675164795 0 0)
(0.0003353555243343693 0 0)
(0.0003998677884489347 0 0)
(0.0004643398358100843 0 0)
(0.0005286481655927856 0 0)
(0.0005923585735023836 0 0)
(0.0006548968016799033 0 0)
(0.0007152562053501034 0 0)
(0.0007723612846065994 0 0)
(0.0008248330207762624 0 0)
(0.000871477846062358 0 0)
(0.0009110350318267916 0 0)
(0.0009426954278792965 0 0)
(0.0009657098314621483 0 0)
(0.0009798141405537796 0 0)
(0.0009847369399207334 0 0)
(0.0009805929661239915 0 0)
(0.0009674059294909454 0 0)
(0.0009455064042266228 0 0)
(0.0009150079550603285 0 0)
(0.0008762699358470543 0 0)
(0.0008294490244476888 0 0)
(0.0007752895052710101 0 0)
(0.000715238320324995 0 0)
(0.0006521796483944056 0 0)
(0.0005883624374511566 0 0)
(0.0005246124256434355 0 0)
(0.0004609820621472962 0 0)
(0.0003978607289480313 0 0)
(0.0003357276828030893 0 0)
(0.0002754493372123968 0 0)
(0.0002179915328135365 0 0)
(0.0001646275520415946 0 0)
(0.0001165673648789525 0 0)
(7.512044505873462e-05 0 0)
(4.129387701628484e-05 0 0)
(1.599916011694721e-05 0 0)
(-2.895382585160036e-07 0 0)
(-7.220220172011216e-06 0 0)
(-4.833291598464974e-06 0 0)
(6.833146676161113e-06 0 0)
(2.750198568836021e-05 0 0)
(5.70402746974096e-05 0 0)
(9.516014590473109e-05 0 0)
(0.0001416620155527415 0 0)
(0.0001957327641166267 0 0)
(0.0002556256739428003 0 0)
(0.0003182940266979878 0 0)
(0.0003815758561537312 0 0)
(0.00044478130887798 0 0)
(0.0005079043214481225 0 0)
(0.0005705020616485055 0 0)
(0.0006322331134133299 0 0)
(0.0006922060747987317 0 0)
(0.0007496320202725342 0 0)
(0.00080323699543168 0 0)
(0.0008519600410663299 0 0)
(0.0008944169174726151 0 0)
(0.0009296597284108158 0 0)
(0.0009565972540760406 0 0)
(0.0009747525051672771 0 0)
(0.0009835669458147618 0 0)
(0.0009831039444625207 0 0)
(0.000973244006823177 0 0)
(0.000954350364056835 0 0)
(0.000926426749771229 0 0)
(0.0008898425357735405 0 0)
(0.0008446904462703233 0 0)
(0.0007918423533579125 0 0)
(0.0007329006661467684 0 0)
(0.0006709583085794862 0 0)
(0.0006082329405178058 0 0)
(0.0005455957277466331 0 0)
(0.000483011281816759 0 0)
(0.0004208580376857098 0 0)
(0.0003594478079145911 0 0)
(0.0002995487733129084 0 0)
(0.0002418871733428126 0 0)
(0.0001876339677351209 0 0)
(0.0001378236396952379 0 0)
(9.3802868105496e-05 0 0)
(5.662498189904241e-05 0 0)
(2.744879313210793e-05 0 0)
(6.976976010885755e-06 0 0)
(-4.13342641376103e-06 0 0)
(-5.709977095241456e-06 0 0)
(2.389944972225876e-06 0 0)
(1.99595810950837e-05 0 0)
(4.694411790954147e-05 0 0)
(8.300986211064194e-05 0 0)
(0.0001279431506159362 0 0)
(0.0001807810304821507 0 0)
(0.0002396013801767268 0 0)
(0.0003012113029551577 0 0)
(0.0003634905584159584 0 0)
(0.0004256911103601927 0 0)
(0.0004878771178924063 0 0)
(0.0005496250149013335 0 0)
(0.0006107181864336738 0 0)
(0.0006703339861051777 0 0)
(0.0007278722580735379 0 0)
(0.0007821418314351169 0 0)
(0.0008322259348086019 0 0)
(0.000876772304768731 0 0)
(0.0009148186128451737 0 0)
(0.0009451305090757806 0 0)
(0.0009670803141396475 0 0)
(0.0009798669884259498 0 0)
(0.0009833582901564843 0 0)
(0.0009772241072872544 0 0)
(0.0009616750498401497 0 0)
(0.0009367243260326232 0 0)
(0.0009026243313245245 0 0)
(0.0008595110847166957 0 0)
(0.0008083596865821598 0 0)
(0.0007508964963943806 0 0)
(0.0006900672038692587 0 0)
(0.000628290969879468 0 0)
(0.000566477496208567 0 0)
(0.0005045992723318231 0 0)
(0.0004430750441536816 0 0)
(0.0003821210763843808 0 0)
(0.0003224245824765383 0 0)
(0.0002645355035551545 0 0)
(0.0002096616890272547 0 0)
(0.0001586319670272819 0 0)
(0.0001127001091715824 0 0)
(7.294589077352798e-05 0 0)
(4.060163698802262e-05 0 0)
(1.640463864721604e-05 0 0)
(1.179653264225374e-06 0 0)
(-4.561736037289381e-06 0 0)
(-4.40165147676311e-07 0 0)
(1.344862727321257e-05 0 0)
(3.729830027793604e-05 0 0)
(7.082484324737378e-05 0 0)
(0.0001138561413094865 0 0)
(0.0001651130066086953 0 0)
(0.0002230839299705443 0 0)
(0.0002840211190357785 0 0)
(0.0003459439580284941 0 0)
(0.0004080746176663241 0 0)
(0.0004703731356045283 0 0)
(0.0005322755073892544 0 0)
(0.0005936597126063338 0 0)
(0.0006538866246858278 0 0)
(0.0007122383399560677 0 0)
(0.0007676291507719191 0 0)
(0.0008193569988782344 0 0)
(0.0008659480791883645 0 0)
(0.0009064938008310962 0 0)
(0.0009397978225417136 0 0)
(0.0009651224300318687 0 0)
(0.0009814769744053346 0 0)
(0.0009885607769965321 0 0)
(0.0009857342382742554 0 0)
(0.0009731534146956639 0 0)
(0.0009504958477526196 0 0)
(0.0009182198198010228 0 0)
(0.0008763783030465239 0 0)
(0.0008258336027883595 0 0)
(0.0007686769030321282 0 0)
(0.0007076661061393354 0 0)
(0.0006452263709150615 0 0)
(0.0005826355276871571 0 0)
(0.0005198155015826037 0 0)
(0.0004574122933687022 0 0)
(0.0003954585552897187 0 0)
(0.0003346506349251504 0 0)
(0.00027546552675502 0 0)
(0.0002188144523424694 0 0)
(0.0001655708206726824 0 0)
(0.0001170780896165478 0 0)
(7.411088074258794e-05 0 0)
(3.814129619596428e-05 0 0)
(9.998354241973914e-06 0 0)
(-9.420236085762484e-06 0 0)
(-1.936018945528472e-05 0 0)
(-1.92350940157864e-05 0 0)
(-8.933044586477818e-06 0 0)
(1.180343876247026e-05 0 0)
(4.285970779861841e-05 0 0)
(8.400635422255351e-05 0 0)
(0.0001338539031804695 0 0)
(0.0001906992497626838 0 0)
(0.0002512381154427043 0 0)
(0.0003129301610201884 0 0)
(0.0003748754954034875 0 0)
(0.0004369639417504321 0 0)
(0.0004987054872211242 0 0)
(0.0005599860894645194 0 0)
(0.0006201337118368477 0 0)
(0.0006788212763047327 0 0)
(0.0007348349582913306 0 0)
(0.0007875588167106087 0 0)
(0.0008359331596957928 0 0)
(0.0008787089981441011 0 0)
(0.0009149184472636691 0 0)
(0.0009436962997091119 0 0)
(0.0009638587945785379 0 0)
(0.0009751392668945599 0 0)
(0.0009765569916713956 0 0)
(0.0009680794543161952 0 0)
(0.0009493439965581918 0 0)
(0.0009205584652492283 0 0)
(0.0008817833944968498 0 0)
(0.000834010389336826 0 0)
(0.0007787702223751925 0 0)
(0.0007192609871380771 0 0)
(0.0006578639341333068 0 0)
(0.0005962324823600471 0 0)
(0.0005343207731003076 0 0)
(0.0004727780467344739 0 0)
(0.00041155180944619 0 0)
(0.0003512525213786332 0 0)
(0.0002924125151777891 0 0)
(0.0002357755002334255 0 0)
(0.000181975113790868 0 0)
(0.0001324777000295411 0 0)
(8.785027090549925e-05 0 0)
(4.961505968961685e-05 0 0)
(1.86015630655682e-05 0 0)
(-4.088849341589919e-06 0 0)
(-1.773175683632146e-05 0 0)
(-2.142512098028351e-05 0 0)
(-1.492378376216996e-05 0 0)
(2.305926971566959e-06 0 0)
(3.006961950038811e-05 0 0)
(6.845819679177556e-05 0 0)
(0.0001162527012258775 0 0)
(0.0001714536600263264 0 0)
(0.0002311595486467681 0 0)
(0.0002923112370420734 0 0)
(0.0003537182636840392 0 0)
(0.0004152822841882518 0 0)
(0.0004766509444632082 0 0)
(0.0005375603646897185 0 0)
(0.0005974794391225682 0 0)
(0.0006561050450661096 0 0)
(0.000712442265685607 0 0)
(0.000765812276094464 0 0)
(0.0008152089041929831 0 0)
(0.0008597279652293148 0 0)
(0.000898120677288147 0 0)
(0.000929632562930289 0 0)
(0.0009530673756041264 0 0)
(0.0009679133869736351 0 0)
(0.0009731281219825482 0 0)
(0.0009685032446934513 0 0)
(0.0009535749390095061 0 0)
(0.000928270780735828 0 0)
(0.0008927049778368569 0 0)
(0.0008476579159808765 0 0)
(0.0007943868506499954 0 0)
(0.0007361319886027226 0 0)
(0.0006755881107136072 0 0)
(0.0006145975719886386 0 0)
(0.0005533365650410973 0 0)
(0.0004923656466049247 0 0)
(0.0004316129621624474 0 0)
(0.000371688584883484 0 0)
(0.0003129019638549538 0 0)
(0.0002561860130555569 0 0)
(0.0002019007137536114 0 0)
(0.0001512864827892519 0 0)
(0.0001052852016230237 0 0)
(6.492797289318504e-05 0 0)
(3.129795809909408e-05 0 0)
(5.591293256342637e-06 0 0)
(-1.166862099081818e-05 0 0)
(-1.919942376762601e-05 0 0)
(-1.659176801994992e-05 0 0)
(-3.241288181972777e-06 0 0)
(2.089185394301463e-05 0 0)
(5.597660543403199e-05 0 0)
(0.0001010662040338284 0 0)
(0.0001543582685902021 0 0)
(0.0002127511547122695 0 0)
(0.0002732667669331054 0 0)
(0.000334054016463667 0 0)
(0.0003949830330158402 0 0)
(0.0004558068332659906 0 0)
(0.0005162941189811469 0 0)
(0.0005759121447479466 0 0)
(0.0006343006139308879 0 0)
(0.0006908081522351218 0 0)
(0.0007446465855651649 0 0)
(0.000794754754827018 0 0)
(0.0008406708661514428 0 0)
(0.000880808839001622 0 0)
(0.0009146468720888904 0 0)
(0.0009409110413359099 0 0)
(0.0009589525346245492 0 0)
(0.0009677024101527872 0 0)
(0.0009667881079598463 0 0)
(0.0009555662371540549 0 0)
(0.0009339881468535812 0 0)
(0.0009017384938572081 0 0)
(0.000859609930830858 0 0)
(0.0008087376622654836 0 0)
(0.0007518189150473572 0 0)
(0.0006921022476939738 0 0)
(0.0006316757470829819 0 0)
(0.0005710036500674417 0 0)
(0.0005103992473899402 0 0)
(0.0004501436173504505 0 0)
(0.0003905031424724047 0 0)
(0.0003317961650305617 0 0)
(0.0002748835362080844 0 0)
(0.000220219897017682 0 0)
(0.0001686945649260954 0 0)
(0.0001213366466979938 0 0)
(7.919502138425406e-05 0 0)
(4.32239099116378e-05 0 0)
(1.46538568313868e-05 0 0)
(-5.805209802416364e-06 0 0)
(-1.699536419783799e-05 0 0)
(-1.832757374589708e-05 0 0)
(-8.974451922371649e-06 0 0)
(1.13330977696985e-05 0 0)
(4.268547221028714e-05 0 0)
(8.463512558210697e-05 0 0)
(0.0001356183050172024 0 0)
(0.0001924220103693973 0 0)
(0.0002521113502241351 0 0)
(0.0003122586926009284 0 0)
(0.0003726110019789984 0 0)
(0.0004326306575432495 0 0)
(0.0004927874973355367 0 0)
(0.0005520013409640895 0 0)
(0.0006101890328407586 0 0)
(0.0006666170937921428 0 0)
(0.0007208580094249912 0 0)
(0.0007716296190251869 0 0)
(0.0008184467776887324 0 0)
(0.000860233062751254 0 0)
(0.0008960042843177728 0 0)
(0.0009247434939324528 0 0)
(0.0009456818243641373 0 0)
(0.0009577351726700881 0 0)
(0.0009602982210232219 0 0)
(0.0009527521452509709 0 0)
(0.0009348564686513933 0 0)
(0.0009062025488941295 0 0)
(0.000867247973640582 0 0)
(0.0008189847446892619 0 0)
(0.0007637908061882096 0 0)
(0.0007049051236464929 0 0)
(0.0006450137267318238 0 0)
(0.0005849174126964505 0 0)
(0.0005245495724483393 0 0)
(0.0004648104509697148 0 0)
(0.0004054134480065605 0 0)
(0.0003468389248799102 0 0)
(0.0002896823625572206 0 0)
(0.0002347021628854112 0 0)
(0.0001824591064839462 0 0)
(0.0001337778517343977 0 0)
(9.008544711130973e-05 0 0)
(5.198349502081983e-05 0 0)
(2.079724291690962e-05 0 0)
(-2.572300945690924e-06 0 0)
(-1.729035420260052e-05 0 0)
(-2.241822464131482e-05 0 0)
(-1.698545281791389e-05 0 0)
(-7.20409697299038e-07 0 0)
(2.682071336241345e-05 0 0)
(6.517295999814132e-05 0 0)
(0.0001133611164708157 0 0)
(0.0001683775804865503 0 0)
(0.0002269516589246734 0 0)
(0.0002864456724172975 0 0)
(0.0003461560767027934 0 0)
(0.0004054764027155033 0 0)
(0.000465129185383954 0 0)
(0.0005239260792934587 0 0)
(0.0005818324894000745 0 0)
(0.0006381269703698826 0 0)
(0.000692518319352648 0 0)
(0.0007438877073510938 0 0)
(0.0007914722735230198 0 0)
(0.0008345317895374282 0 0)
(0.0008720617432400977 0 0)
(0.0009029742193875181 0 0)
(0.0009264807585589928 0 0)
(0.0009416435536424233 0 0)
(0.0009474778804730682 0 0)
(0.000943454688737233 0 0)
(0.0009291721547005942 0 0)
(0.0009042384491655827 0 0)
(0.0008686271296109424 0 0)
(0.0008232323468036844 0 0)
(0.0007701532943230093 0 0)
(0.0007122795122916613 0 0)
(0.0006529190980557389 0 0)
(0.0005932414863188684 0 0)
(0.0005333779250238668 0 0)
(0.0004738427342361931 0 0)
(0.0004147422717140583 0 0)
(0.0003563255415095709 0 0)
(0.0002990768420933266 0 0)
(0.0002436465256910015 0 0)
(0.0001908899790657146 0 0)
(0.0001411586765316352 0 0)
(9.585882857461169e-05 0 0)
(5.594969296580094e-05 0 0)
(2.236409587460953e-05 0 0)
(-3.857865659265768e-06 0 0)
(-2.163369057489931e-05 0 0)
(-3.039459536879015e-05 0 0)
(-2.891126946661202e-05 0 0)
(-1.668518130980856e-05 0 0)
(6.821739421278645e-06 0 0)
(4.138791161983103e-05 0 0)
(8.632432691845926e-05 0 0)
(0.000139149735557079 0 0)
(0.0001964076303901892 0 0)
(0.0002551468338441822 0 0)
(0.000314148575160449 0 0)
(0.0003730330210665827 0 0)
(0.0004316715701494406 0 0)
(0.0004901938938262608 0 0)
(0.0005477969946532228 0 0)
(0.0006039500240020353 0 0)
(0.0006582887627203556 0 0)
(0.0007101467303488741 0 0)
(0.0007584760226793831 0 0)
(0.0008024252337348047 0 0)
(0.0008415460763438317 0 0)
(0.0008743836888468732 0 0)
(0.0009002196691294442 0 0)
(0.00091820340277024 0 0)
(0.0009271501145368254 0 0)
(0.0009264598812343315 0 0)
(0.0009157823251161157 0 0)
(0.0008944616362597986 0 0)
(0.0008625201314986119 0 0)
(0.0008201797330420163 0 0)
(0.0007694824137000543 0 0)
(0.0007129809339824048 0 0)
(0.0006541903978415888 0 0)
(0.0005948522179454938 0 0)
(0.0005356741257877196 0 0)
(0.0004759193405380651 0 0)
(0.0004174183910162768 0 0)
(0.0003591330735778222 0 0)
(0.0003018817420495689 0 0)
(0.0002461082830503412 0 0)
(0.000192794425754675 0 0)
(0.0001423038115829165 0 0)
(9.55374979988382e-05 0 0)
(5.38968428279343e-05 0 0)
(1.825436551431451e-05 0 0)
(-1.068789186122718e-05 0 0)
(-3.132813152139393e-05 0 0)
(-4.360320760238212e-05 0 0)
(-4.590991711864665e-05 0 0)
(-3.762132764473226e-05 0 0)
(-1.824463038303703e-05 0 0)
(1.240324260525355e-05 0 0)
(5.371519462999287e-05 0 0)
(0.0001039256804576419 0 0)
(0.00015967247428194 0 0)
(0.0002175117498042206 0 0)
(0.0002758076850634676 0 0)
(0.000334164331997638 0 0)
(0.0003918785805545281 0 0)
(0.0004501334325999686 0 0)
(0.0005072825292462936 0 0)
(0.0005632158091277378 0 0)
(0.0006175240381325427 0 0)
(0.0006695214544002248 0 0)
(0.0007186066398694827 0 0)
(0.0007633376599262157 0 0)
(0.0008037100378939779 0 0)
(0.0008384013121240007 0 0)
(0.0008662646378684385 0 0)
(0.0008867017584955792 0 0)
(0.0008987891384305997 0 0)
(0.0009012407503407336 0 0)
(0.0008939615465644754 0 0)
(0.0008762180942933633 0 0)
(0.0008479170113618918 0 0)
(0.0008089835223945806 0 0)
(0.0007608214580619608 0 0)
(0.0007061833247421129 0 0)
(0.0006479154838547944 0 0)
(0.0005890270196733485 0 0)
(0.0005301917702227521 0 0)
(0.0004708909686080455 0 0)
(0.0004125280967437651 0 0)
(0.0003543447239597195 0 0)
(0.0002972065830075011 0 0)
(0.0002412147859554325 0 0)
(0.000187282931838948 0 0)
(0.0001361861379608069 0 0)
(8.825161357796157e-05 0 0)
(4.48873674043255e-05 0 0)
(7.344199608480267e-06 0 0)
(-2.404356883080629e-05 0 0)
(-4.768132057686394e-05 0 0)
(-6.278276895558742e-05 0 0)
(-6.884248691295841e-05 0 0)
(-6.456284960354615e-05 0 0)
(-4.925350643709778e-05 0 0)
(-2.275780009551505e-05 0 0)
(1.4862927875906e-05 0 0)
(6.186503977002704e-05 0 0)
(0.0001159025882267412 0 0)
(0.0001723821753179888 0 0)
(0.0002301497972935397 0 0)
(0.000287774139466112 0 0)
(0.0003452164420504928 0 0)
(0.0004022588007569274 0 0)
(0.0004592116494296565 0 0)
(0.0005149731381131445 0 0)
(0.0005691422863697364 0 0)
(0.0006212189963250164 0 0)
(0.0006707442745880092 0 0)
(0.0007164465915632614 0 0)
(0.0007575449198263859 0 0)
(0.0007940193319416653 0 0)
(0.0008238301936729969 0 0)
(0.0008464149651949034 0 0)
(0.0008614030908954174 0 0)
(0.0008667872031129186 0 0)
(0.0008627863808442862 0 0)
(0.0008486222406773125 0 0)
(0.000823893406049427 0 0)
(0.0007885889431138786 0 0)
(0.0007432739991878804 0 0)
(0.0006906674435159386 0 0)
(0.0006333991702675376 0 0)
(0.0005748461496220986 0 0)
(0.0005162392566072377 0 0)
(0.0004577117461683419 0 0)
(0.0003987157865146826 0 0)
(0.0003412227103111402 0 0)
(0.0002841149134520497 0 0)
(0.0002279698584963286 0 0)
(0.0001736250938658578 0 0)
(0.0001217257939790016 0 0)
(7.316213177067174e-05 0 0)
(2.783910760200002e-05 0 0)
(-1.116165797794299e-05 0 0)
(-4.479474265377546e-05 0 0)
(-7.133255786427866e-05 0 0)
(-8.929354506987913e-05 0 0)
(-9.891828923061819e-05 0 0)
(-9.844401937880028e-05 0 0)
(-8.710454955805745e-05 0 0)
(-6.480415526169179e-05 0 0)
(-3.11600014275283e-05 0 0)
(1.252872611152608e-05 0 0)
(6.401758405330413e-05 0 0)
(0.0001197140414634752 0 0)
(0.0001761567404938711 0 0)
(0.0002332305460473314 0 0)
(0.0002903461590815811 0 0)
(0.0003462175688453174 0 0)
(0.0004031877022519359 0 0)
(0.0004584034510480647 0 0)
(0.0005124784365961691 0 0)
(0.0005645454425042947 0 0)
(0.0006142468899473108 0 0)
(0.0006608658374027008 0 0)
(0.0007026267722385702 0 0)
(0.0007405505418387301 0 0)
(0.0007722052936436169 0 0)
(0.0007967725450359111 0 0)
(0.0008141464768434679 0 0)
(0.0008228189682212273 0 0)
(0.0008218457409757161 0 0)
(0.0008110217234843732 0 0)
(0.0007898575205485672 0 0)
(0.0007580577909483643 0 0)
(0.0007161675381513713 0 0)
(0.0006655083522452171 0 0)
(0.0006101496428913084 0 0)
(0.0005513955583397025 0 0)
(0.0004932845829450175 0 0)
(0.0004351223577807319 0 0)
(0.0003763523876459963 0 0)
(0.0003190125528047833 0 0)
(0.0002617791385721919 0 0)
(0.0002057544348145695 0 0)
(0.0001510545993092667 0 0)
(9.847266939614786e-05 0 0)
(4.910770933597734e-05 0 0)
(2.644478628934715e-06 0 0)
(-3.838297276853081e-05 0 0)
(-7.372958623050012e-05 0 0)
(-0.0001029497937555765 0 0)
(-0.0001240754805309071 0 0)
(-0.0001363288100269544 0 0)
(-0.0001397976110399157 0 0)
(-0.0001325539444231117 0 0)
(-0.0001143092192543797 0 0)
(-8.488532729939574e-05 0 0)
(-4.471115725920858e-05 0 0)
(3.834984724670611e-06 0 0)
(5.815801270906772e-05 0 0)
(0.0001136570742074991 0 0)
(0.0001698275986945911 0 0)
(0.0002263259564777453 0 0)
(0.0002821192985297219 0 0)
(0.0003376564503916697 0 0)
(0.0003928431487064321 0 0)
(0.0004468043098548762 0 0)
(0.0004987929467263507 0 0)
(0.000548634979242338 0 0)
(0.0005956614351079323 0 0)
(0.0006386726333006986 0 0)
(0.0006770072920198843 0 0)
(0.0007107575500280241 0 0)
(0.0007370912801000683 0 0)
(0.0007566787612979972 0 0)
(0.0007684045576614707 0 0)
(0.0007701827675249381 0 0)
(0.000762659601405778 0 0)
(0.0007450758719404693 0 0)
(0.0007168037938943999 0 0)
(0.0006783389761772376 0 0)
(0.0006303953359375973 0 0)
(0.0005764425519874441 0 0)
(0.0005187807091428788 0 0)
(0.000460393997056937 0 0)
(0.000402503056322464 0 0)
(0.0003446738289789038 0 0)
(0.0002862482326355863 0 0)
(0.0002299053885254393 0 0)
(0.0001737210311186902 0 0)
(0.0001187823938726354 0 0)
(6.571579970322709e-05 0 0)
(1.535166177475757e-05 0 0)
(-3.154103998990471e-05 0 0)
(-7.510189663951789e-05 0 0)
(-0.0001118538377998327 0 0)
(-0.000143373062454364 0 0)
(-0.0001673651052532463 0 0)
(-0.0001826594395518038 0 0)
(-0.0001896586024569278 0 0)
(-0.0001863096932388771 0 0)
(-0.0001721140773657753 0 0)
(-0.0001468772242537025 0 0)
(-0.000110716984867901 0 0)
(-6.50622860465e-05 0 0)
(-1.304644616012999e-05 0 0)
(4.191410789080936e-05 0 0)
(9.705446105693679e-05 0 0)
(0.0001527055143484336 0 0)
(0.0002084269442396507 0 0)
(0.0002625247692628349 0 0)
(0.0003180640014247922 0 0)
(0.0003713249121339487 0 0)
(0.0004233732066856989 0 0)
(0.0004732404762122081 0 0)
(0.0005204504461940441 0 0)
(0.0005645697746490226 0 0)
(0.0006033335719429329 0 0)
(0.0006385998577068488 0 0)
(0.0006670564550419143 0 0)
(0.0006885029778640404 0 0)
(0.0007024533657917058 0 0)
(0.0007078311583850154 0 0)
(0.000703160822080453 0 0)
(0.0006888908064623939 0 0)
(0.0006641733606890496 0 0)
(0.0006290828971139301 0 0)
(0.0005843468864439385 0 0)
(0.0005319320954774957 0 0)
(0.000475763963802291 0 0)
(0.0004175875976215857 0 0)
(0.0003593717831900149 0 0)
(0.0003020627124603489 0 0)
(0.0002438007764090859 0 0)
(0.0001873840200178572 0 0)
(0.0001310639256348161 0 0)
(7.620937082767917e-05 0 0)
(2.264443728265936e-05 0 0)
(-2.849899887156062e-05 0 0)
(-7.62437560231059e-05 0 0)
(-0.0001211156665798934 0 0)
(-0.0001598682257988118 0 0)
(-0.0001930666285864096 0 0)
(-0.0002202984506395086 0 0)
(-0.0002387348491103016 0 0)
(-0.0002481714359552209 0 0)
(-0.0002490817309760242 0 0)
(-0.0002389433668215799 0 0)
(-0.0002178314558208629 0 0)
(-0.0001858111502549054 0 0)
(-0.0001435454452990336 0 0)
(-9.400726654956257e-05 0 0)
(-4.0146828957764e-05 0 0)
(1.443344550994594e-05 0 0)
(6.883983004709613e-05 0 0)
(0.0001240856236033136 0 0)
(0.000178320066545857 0 0)
(0.0002320893632029426 0 0)
(0.0002856925625932105 0 0)
(0.0003376165158768972 0 0)
(0.0003874320346182141 0 0)
(0.0004348569466219226 0 0)
(0.0004794641092669619 0 0)
(0.0005194504043078001 0 0)
(0.0005554057246192684 0 0)
(0.0005858126655643447 0 0)
(0.0006088864187559194 0 0)
(0.0006252495145048797 0 0)
(0.0006337168130102652 0 0)
(0.0006317306241974427 0 0)
(0.000620774559860397 0 0)
(0.0005996624249384701 0 0)
(0.0005680558884352371 0 0)
(0.0005264896057943644 0 0)
(0.0004765461537723927 0 0)
(0.0004213755824072792 0 0)
(0.0003639274494794303 0 0)
(0.0003057683553139447 0 0)
(0.0002482304696533894 0 0)
(0.0001909766603043974 0 0)
(0.0001331690991018589 0 0)
(7.790281427646063e-05 0 0)
(2.261321191323033e-05 0 0)
(-3.122300968295085e-05 0 0)
(-8.299129761420923e-05 0 0)
(-0.0001318812283238109 0 0)
(-0.0001771224193049268 0 0)
(-0.0002187934795521665 0 0)
(-0.0002535715333009147 0 0)
(-0.0002826894262494047 0 0)
(-0.0003044041762237018 0 0)
(-0.0003171330505073512 0 0)
(-0.0003212306974870136 0 0)
(-0.0003152805740404624 0 0)
(-0.0002981967591117755 0 0)
(-0.0002703694844745688 0 0)
(-0.0002319903937632696 0 0)
(-0.0001849884573268037 0 0)
(-0.0001330739646351796 0 0)
(-7.899846389047277e-05 0 0)
(-2.502529527039517e-05 0 0)
(2.87314831019148e-05 0 0)
(8.325891671806385e-05 0 0)
(0.0001355426147427663 0 0)
(0.0001896281620741823 0 0)
(0.0002408125487021412 0 0)
(0.000290851346335515 0 0)
(0.0003383154835007574 0 0)
(0.0003831075261890946 0 0)
(0.0004245097387481636 0 0)
(0.0004604994112199989 0 0)
(0.0004926357332238862 0 0)
(0.0005182421257508374 0 0)
(0.0005357509917183163 0 0)
(0.0005467284848761272 0 0)
(0.0005488206480104308 0 0)
(0.0005404107615302183 0 0)
(0.0005227024102759948 0 0)
(0.0004946112885502395 0 0)
(0.0004563431540292225 0 0)
(0.0004091591405271253 0 0)
(0.0003554393843611699 0 0)
(0.0002988029307494432 0 0)
(0.0002411187183809994 0 0)
(0.0001829579383603253 0 0)
(0.0001262420382252628 0 0)
(6.857037651895023e-05 0 0)
(1.262826546733543e-05 0 0)
(-4.250366545433398e-05 0 0)
(-9.641431907479344e-05 0 0)
(-0.0001488171351766166 0 0)
(-0.0001985964557017476 0 0)
(-0.0002447106561729568 0 0)
(-0.0002878647403536616 0 0)
(-0.0003245645868326125 0 0)
(-0.0003556925522792495 0 0)
(-0.0003805660072491393 0 0)
(-0.0003964729984490096 0 0)
(-0.0004030655004295846 0 0)
(-0.0004015634256929663 0 0)
(-0.0003886234056790892 0 0)
(-0.0003648425673874809 0 0)
(-0.0003304995598833647 0 0)
(-0.0002868000556334001 0 0)
(-0.0002366739936269421 0 0)
(-0.0001839254347048872 0 0)
(-0.0001301951776907362 0 0)
(-7.722890808113032e-05 0 0)
(-2.378059131745222e-05 0 0)
(2.929435340541617e-05 0 0)
(8.073727808028991e-05 0 0)
(0.0001331902338726627 0 0)
(0.0001827976075953375 0 0)
(0.0002303222924119966 0 0)
(0.0002752902422752011 0 0)
(0.0003172805814036083 0 0)
(0.0003545546105519797 0 0)
(0.0003875363774310809 0 0)
(0.0004147153400421205 0 0)
(0.0004348675160579432 0 0)
(0.0004473156341424905 0 0)
(0.0004524545402353898 0 0)
(0.0004472204768780664 0 0)
(0.0004325376443196242 0 0)
(0.0004081412790104136 0 0)
(0.0003732801819402846 0 0)
(0.0003289437307826004 0 0)
(0.0002774305431037179 0 0)
(0.000221334549977936 0 0)
(0.0001643194359157987 0 0)
(0.0001066805307194686 0 0)
(4.871863385428301e-05 0 0)
(-7.444545838881278e-06 0 0)
(-6.550958664377823e-05 0 0)
(-0.0001189808428526131 0 0)
(-0.0001737953555658919 0 0)
(-0.0002263757875926088 0 0)
(-0.0002769661272859099 0 0)
(-0.0003243772453787854 0 0)
(-0.0003678308723713855 0 0)
(-0.0004076490603576185 0 0)
(-0.0004406147492854715 0 0)
(-0.0004670048776486457 0 0)
(-0.0004872193197554214 0 0)
(-0.0004969539409261272 0 0)
(-0.0004976575715517883 0 0)
(-0.0004895463811371039 0 0)
(-0.0004699130132400959 0 0)
(-0.0004396673277005948 0 0)
(-0.0003996628069349493 0 0)
(-0.0003519194773605617 0 0)
(-0.0003006201828096924 0 0)
(-0.0002474254147482392 0 0)
(-0.0001946933403470785 0 0)
(-0.0001427033882623184 0 0)
(-8.949781948172898e-05 0 0)
(-3.839190507559973e-05 0 0)
(1.296924109040343e-05 0 0)
(6.282279026799848e-05 0 0)
(0.000110433371907156 0 0)
(0.0001554114241782706 0 0)
(0.0001976047711517527 0 0)
(0.0002363558611903135 0 0)
(0.0002695779523696996 0 0)
(0.0002986703001197767 0 0)
(0.0003209385996500167 0 0)
(0.000335255068551856 0 0)
(0.0003426143914530281 0 0)
(0.0003414739838470396 0 0)
(0.0003291909688812804 0 0)
(0.0003079085765086697 0 0)
(0.0002767571895907147 0 0)
(0.0002355805116821517 0 0)
(0.0001861858957371585 0 0)
(0.0001318698746031562 0 0)
(7.454212902018042e-05 0 0)
(1.761747853105516e-05 0 0)
(-3.992366963843647e-05 0 0)
(-9.761952263608686e-05 0 0)
(-0.0001532488624332397 0 0)
(-0.0002108939990181584 0 0)
(-0.0002630002710973096 0 0)
(-0.0003166326577840295 0 0)
(-0.0003678086305773967 0 0)
(-0.0004161588014281327 0 0)
(-0.0004609170466241356 0 0)
(-0.000501593343187463 0 0)
(-0.0005370483148413359 0 0)
(-0.0005661791607295879 0 0)
(-0.0005877910296813266 0 0)
(-0.0006028134659634838 0 0)
(-0.0006062083164244531 0 0)
(-0.0006012042540735108 0 0)
(-0.0005862134460000209 0 0)
(-0.000559850048003611 0 0)
(-0.0005236623011846793 0 0)
(-0.0004791163218131654 0 0)
(-0.0004289979675412257 0 0)
(-0.0003776840819307472 0 0)
(-0.0003247534988352224 0 0)
(-0.0002726335095986409 0 0)
(-0.0002219238731823748 0 0)
(-0.0001691293023511913 0 0)
(-0.0001205774335140215 0 0)
(-6.817681585438957e-05 0 0)
(-2.212423717778768e-05 0 0)
(2.331670806222038e-05 0 0)
(6.558833732308657e-05 0 0)
(0.0001044673019685884 0 0)
(0.0001398137299986755 0 0)
(0.0001689758542971518 0 0)
(0.0001932754738054275 0 0)
(0.0002106309284399426 0 0)
(0.0002189626358146322 0 0)
(0.0002207882674480287 0 0)
(0.0002131852456277737 0 0)
(0.0001941826328783971 0 0)
(0.00016610989836587 0 0)
(0.000128441279003932 0 0)
(8.16853208100201e-05 0 0)
(2.873705253228341e-05 0 0)
(-2.721514917455201e-05 0 0)
(-8.486135058877447e-05 0 0)
(-0.0001415685066917301 0 0)
(-0.0001986662772902642 0 0)
(-0.0002567146989443303 0 0)
(-0.0003110782904969452 0 0)
(-0.0003686031127638255 0 0)
(-0.0004184436636635267 0 0)
(-0.0004717644596916314 0 0)
(-0.0005206317712555014 0 0)
(-0.00056677171048219 0 0)
(-0.0006080396003741213 0 0)
(-0.0006456469644314753 0 0)
(-0.0006768213930656851 0 0)
(-0.0007017137779370339 0 0)
(-0.000718275457212266 0 0)
(-0.0007274814944961322 0 0)
(-0.0007244021679930012 0 0)
(-0.000713923486935819 0 0)
(-0.0006919530289398498 0 0)
(-0.000659119154125759 0 0)
(-0.0006179521500734577 0 0)
(-0.0005702070950988924 0 0)
(-0.0005193904203225512 0 0)
(-0.0004684561360424082 0 0)
(-0.0004164822359469957 0 0)
(-0.0003647025682913141 0 0)
(-0.0003152939002586988 0 0)
(-0.0002633778297107568 0 0)
(-0.0002168026907827511 0 0)
(-0.0001633886627257821 0 0)
(-0.0001227721302824418 0 0)
(-7.941430624848948e-05 0 0)
(-4.067167439335324e-05 0 0)
(-3.659473446242467e-06 0 0)
(2.600165635080465e-05 0 0)
(5.229410751629954e-05 0 0)
(7.099099227486378e-05 0 0)
(8.349764314115964e-05 0 0)
(8.536572241208486e-05 0 0)
(8.288801176244884e-05 0 0)
(6.622300384252809e-05 0 0)
(4.34571934151561e-05 0 0)
)
;

boundaryField
{
    inlet
    {
        type            calculated;
        value           uniform (-2.692783882987528e-05 0 0);
    }
    outlet
    {
        type            calculated;
        value           uniform (2.617034245613185e-05 0 0);
    }
    frontAndBack
    {
        type            empty;
    }
}


// ************************************************************************* //
