/*--------------------------------*- C++ -*----------------------------------*\
| =========                 |                                                 |
| \\      /  F ield         | OpenFOAM: The Open Source CFD Toolbox           |
|  \\    /   O peration     | Version:  v2012                                 |
|   \\  /    A nd           | Website:  www.openfoam.com                      |
|    \\/     M anipulation  |                                                 |
\*---------------------------------------------------------------------------*/
FoamFile
{
    version     2.0;
    format      ascii;
    class       volScalarField;
    location    "0.01";
    object      pMean;
}
// * * * * * * * * * * * * * * * * * * * * * * * * * * * * * * * * * * * * * //

dimensions      [1 -1 -2 0 0 0 0];


internalField   nonuniform List<scalar> 
1000
(
101325.0339087811
101325.0208422942
101325.0117334142
101325.036369213
101325.0528177715
101325.0748812776
101325.0981183561
101325.1378007238
101325.152668448
101325.1987371035
101325.2321696832
101325.2624930445
101325.2957744957
101325.3468725009
101325.3636110847
101325.3900618595
101325.4422788023
101325.4598112995
101325.4696936783
101325.4988392218
101325.5223139839
101325.525685282
101325.51624969
101325.5368704237
101325.5382870459
101325.5171457471
101325.4880072395
101325.4981114725
101325.4821885925
101325.420271443
101325.4089496035
101325.4007607714
101325.3373095866
101325.2908874765
101325.2979013475
101325.2451134446
101325.1882911469
101325.1826471955
101325.1565144536
101325.1013998537
101325.0831650487
101325.072177334
101325.0365638181
101325.0240421723
101325.0130399194
101325.0069468608
101325.0059426544
101325.0023777141
101325.0150602291
101325.0300919817
101325.0393953307
101325.0638604846
101325.0939553981
101325.1095493099
101325.1513776274
101325.1917592368
101325.2120848624
101325.2501249733
101325.2950364728
101325.3136149758
101325.3489626699
101325.3913679665
101325.4091973593
101325.4342949231
101325.4758369534
101325.4880237195
101325.4959404172
101325.5215955641
101325.5346918914
101325.5249876532
101325.5246331624
101325.5269552135
101325.5126574076
101325.4904453965
101325.4761058376
101325.4538335527
101325.4207874186
101325.3893939644
101325.3586453262
101325.3219312133
101325.2853444658
101325.2588628373
101325.2236813699
101325.1862608932
101325.1600742041
101325.1321603159
101325.0969709066
101325.0756215916
101325.0547765611
101325.0328346221
101325.0222881145
101325.0066613109
101325.0040665113
101325.0075330652
101325.0109854862
101325.0167652248
101325.0371574206
101325.0567903928
101325.0794735219
101325.1074876846
101325.138478828
101325.1756067004
101325.2105900438
101325.2378873524
101325.2714163957
101325.312497134
101325.3377364085
101325.3648462919
101325.4047232491
101325.4279369703
101325.4488395489
101325.4794943956
101325.4980311605
101325.5019789477
101325.5246277426
101325.5335511338
101325.5204794829
101325.5267428845
101325.5245131604
101325.4944790397
101325.4797648619
101325.4711065259
101325.4267775802
101325.3946400564
101325.3775639533
101325.3298648451
101325.292414647
101325.2766750171
101325.236105917
101325.1922743836
101325.1807410609
101325.145224524
101325.1033170325
101325.0924122775
101325.0722535264
101325.0344038723
101325.0283613069
101325.0269044032
101324.9979259366
101325.0037995851
101325.0181289735
101325.0113696381
101325.0212608411
101325.0572651692
101325.0681416765
101325.0903778114
101325.1395356063
101325.1588868416
101325.1945541135
101325.236304019
101325.2588192991
101325.2888368165
101325.3372221434
101325.3540788448
101325.377280005
101325.4281047271
101325.439310161
101325.4557440338
101325.4928786023
101325.5058680915
101325.503821394
101325.5293891963
101325.5352761003
101325.513258054
101325.5236194451
101325.517078449
101325.4820858206
101325.466231018
101325.455725466
101325.4028388921
101325.3726090235
101325.3553461169
101325.3069770386
101325.2758408996
101325.2551728606
101325.2142689444
101325.1768753708
101325.167968779
101325.1244184626
101325.0927380188
101325.0861113725
101325.0552687758
101325.029947194
101325.0298071013
101325.0161885457
101324.9983275203
101325.016251159
101325.015627994
101325.0144985971
101325.0456248585
101325.0664137111
101325.0806792316
101325.1212537191
101325.1594995637
101325.1821599036
101325.2165616742
101325.2552370588
101325.2804411923
101325.3103171404
101325.3505231966
101325.37186158
101325.3993430363
101325.4318069627
101325.4529209236
101325.4743398607
101325.4908578318
101325.5077091593
101325.5185503214
101325.5248001988
101325.5210880303
101325.5248714513
101325.5123595821
101325.4949406134
101325.4777860569
101325.4562986047
101325.4151254548
101325.3891100561
101325.3581393678
101325.3196036283
101325.2927425364
101325.2646864709
101325.2244308556
101325.1967484023
101325.1745404321
101325.1385351437
101325.1099024179
101325.0930539612
101325.0668518744
101325.0453517419
101325.0344504766
101325.0209430641
101325.0087298784
101325.0155692967
101325.0138339664
101325.0182299024
101325.0360251716
101325.0568623456
101325.0771413918
101325.1111654223
101325.1456966119
101325.1750124675
101325.2075557684
101325.2403052674
101325.2720128868
101325.3013811628
101325.3338643245
101325.3631583154
101325.3898875354
101325.4180736584
101325.442176703
101325.4646099855
101325.4819313601
101325.5014626937
101325.5108860839
101325.5195439459
101325.521773242
101325.5230073526
101325.5138097948
101325.5014412981
101325.485165187
101325.460899224
101325.429338131
101325.3990267285
101325.3677239912
101325.3330451023
101325.3015688372
101325.2763529843
101325.2385474582
101325.2085913452
101325.1828352634
101325.1556384289
101325.1199679392
101325.1017157125
101325.0808719608
101325.0554805548
101325.0395709102
101325.0301615902
101325.0188990284
101325.010865582
101325.0173977031
101325.0214900044
101325.0303417007
101325.0501786967
101325.0716672636
101325.1038413741
101325.1320196414
101325.1689706032
101325.1944094845
101325.2325577217
101325.2575110042
101325.291593767
101325.3221910959
101325.3500545098
101325.3770692108
101325.4060315118
101325.4330146701
101325.4500544279
101325.4770928452
101325.4880916821
101325.5049272895
101325.5137459998
101325.5180007653
101325.5193722396
101325.5145993457
101325.5063634721
101325.4854121854
101325.471457838
101325.4392963297
101325.4085347837
101325.3764120979
101325.3462114971
101325.3142239759
101325.2825822107
101325.2525936451
101325.2210990051
101325.1943101183
101325.161824463
101325.1382203545
101325.1117098727
101325.086666827
101325.066248751
101325.0519363702
101325.0340400861
101325.0219134765
101325.0205164149
101325.0170056747
101325.0204997601
101325.0295031035
101325.0469640309
101325.0611668797
101325.0937601086
101325.1254995818
101325.1539398415
101325.1872351969
101325.2185251424
101325.2475511368
101325.2809167249
101325.3116405058
101325.3381932543
101325.3663330385
101325.3973641166
101325.4203528304
101325.4420829665
101325.464114857
101325.4837089593
101325.4952144969
101325.509628809
101325.5134951252
101325.5160836634
101325.5162199324
101325.5088371699
101325.4904487834
101325.4739023831
101325.4530968296
101325.417138377
101325.3881802511
101325.3578312402
101325.3252372047
101325.2933835023
101325.2667512615
101325.2346338778
101325.2036005079
101325.1774685269
101325.1489264617
101325.1242557649
101325.0992116469
101325.0784887867
101325.0598694216
101325.0440312915
101325.0319388528
101325.0248056654
101325.0233083716
101325.0188584998
101325.0309718652
101325.0431023331
101325.0606748975
101325.0804091501
101325.1196015916
101325.1459712781
101325.1773207164
101325.2080213278
101325.2380495318
101325.2703876481
101325.2991997214
101325.3285962539
101325.3541457911
101325.3871254317
101325.4086196554
101325.4309262876
101325.4559496573
101325.475413861
101325.4866095498
101325.5009608118
101325.512405009
101325.5104530315
101325.5140903795
101325.5074051406
101325.4961663323
101325.4774916492
101325.4607127056
101325.4268793056
101325.3965679635
101325.3699447473
101325.335199447
101325.3052042294
101325.2775439499
101325.2457402304
101325.2147643381
101325.1901826801
101325.162050203
101325.1314804955
101325.1122372323
101325.0907136142
101325.0675695742
101325.0513253114
101325.0421724208
101325.0298427377
101325.0241331343
101325.0267424686
101325.0291043129
101325.0410976139
101325.0582685462
101325.0749955507
101325.1048617472
101325.1412608121
101325.1675602638
101325.1953969915
101325.2318838912
101325.2578690821
101325.2865493009
101325.3187981397
101325.3468213852
101325.3695320968
101325.4008152994
101325.4246893261
101325.4414118575
101325.4640943551
101325.4835776069
101325.4941873235
101325.5013997595
101325.512067262
101325.511010215
101325.5053371271
101325.4988638564
101325.4841074939
101325.4642523535
101325.4382335589
101325.4079326901
101325.3777475675
101325.3471814432
101325.3153855046
101325.2880448774
101325.2576212638
101325.2274960735
101325.198774911
101325.1750859708
101325.1443427595
101325.1206185481
101325.1014253208
101325.0774348613
101325.0610867971
101325.0474810274
101325.0369555665
101325.0277128087
101325.0303051662
101325.0298935227
101325.0377092761
101325.0550091635
101325.0712594178
101325.0946812629
101325.1297424768
101325.1606432487
101325.1836709865
101325.2203761129
101325.2482050458
101325.2761639095
101325.3068260329
101325.3385406566
101325.356724179
101325.3880984855
101325.4167830993
101325.4311391102
101325.4558405175
101325.4748999186
101325.4861257857
101325.4954020175
101325.5095078611
101325.504934548
101325.5028640966
101325.5031833798
101325.486898017
101325.4661842827
101325.4489249159
101325.4208063057
101325.3842393207
101325.3566140851
101325.3318280732
101325.2954844717
101325.2676868531
101325.2430465881
101325.2096809122
101325.1816835254
101325.1616985676
101325.131506091
101325.1072039665
101325.0911332573
101325.0715005309
101325.0526178096
101325.0446911249
101325.0369654758
101325.0286607627
101325.0345371251
101325.0414422763
101325.0478338857
101325.0665193276
101325.0923128415
101325.1191384932
101325.1479683736
101325.1810854754
101325.2068785632
101325.2401119881
101325.2686220694
101325.2948220015
101325.3234557814
101325.3542864908
101325.378136761
101325.3991243271
101325.4286114035
101325.446515588
101325.4640290162
101325.4778274051
101325.4955417507
101325.4987333705
101325.5047737818
101325.5046239251
101325.4974363115
101325.4902641034
101325.47466135
101325.4556875147
101325.4229595799
101325.3986264425
101325.3691283665
101325.3361249953
101325.3062628266
101325.2811840306
101325.2505435945
101325.2209864704
101325.1956905874
101325.1666713398
101325.1447550604
101325.1196189932
101325.0983399295
101325.0786008447
101325.0644215193
101325.0498556504
101325.0416678154
101325.0351705862
101325.0342051315
101325.0410660348
101325.0480129124
101325.0635813208
101325.081204515
101325.1124808937
101325.1394536867
101325.168783727
101325.1983753701
101325.2296035767
101325.2564161351
101325.2854457778
101325.3139246655
101325.3409075136
101325.3670515904
101325.3908700726
101325.4153626962
101325.4352885865
101325.4567890955
101325.472037929
101325.4848049241
101325.4953700241
101325.5033970539
101325.5016452749
101325.498123839
101325.4946812839
101325.4777623442
101325.4584714018
101325.4372381292
101325.4060723444
101325.3737271777
101325.3470462733
101325.3190834164
101325.2847523684
101325.2609284804
101325.2356905716
101325.2017796666
101325.1786391231
101325.1575114261
101325.1336596335
101325.1065806223
101325.0956516039
101325.0763653838
101325.0606066313
101325.0529239813
101325.04876332
101325.04243019
101325.0473303321
101325.055383355
101325.0627199543
101325.0815300121
101325.1020716423
101325.1247755165
101325.1530925996
101325.1777640761
101325.1981407852
101325.2220499569
101325.2456767291
101325.2626152074
101325.2849896924
101325.3002961533
101325.3188751167
101325.3320045281
101325.3461439426
101325.3583048318
101325.3643136662
101325.3727122291
101325.3753877735
101325.3726974163
101325.370838718
101325.3662744141
101325.348164209
101325.3377376811
101325.3212975861
101325.2951016983
101325.2675278286
101325.2470251718
101325.2175329664
101325.1894523763
101325.1706502793
101325.1474658518
101325.1259330019
101325.1098619391
101325.0936577114
101325.0789599507
101325.0625435431
101325.0546856267
101325.0436035609
101325.0338278794
101325.0276176744
101325.0266289757
101325.0240284456
101325.0272939273
101325.0352963364
101325.0414559424
101325.0613245782
101325.0743964609
101325.098510198
101325.1229795964
101325.1546947422
101325.1781689604
101325.2077609494
101325.2318669976
101325.2564665392
101325.2827183618
101325.2980715044
101325.3198944849
101325.3397155453
101325.3535851669
101325.367244306
101325.3795186478
101325.3930790229
101325.3992036308
101325.4000205049
101325.4070417529
101325.4035071275
101325.3948895375
101325.3884323523
101325.3758930512
101325.3578634259
101325.3375709282
101325.3164502108
101325.2881221122
101325.2615404206
101325.2367854448
101325.2144767968
101325.1872460689
101325.1687212501
101325.1542208047
101325.1311814911
101325.119394259
101325.1079200498
101325.094524876
101325.0852104847
101325.0762775381
101325.0709228792
101325.0649861235
101325.0675279193
101325.0637187819
101325.0720312789
101325.0802640257
101325.0956502662
101325.1054604518
101325.133655842
101325.1519491154
101325.1776508083
101325.2094317451
101325.2376164076
101325.2584922218
101325.2877800111
101325.3145674494
101325.3318230346
101325.3489229761
101325.3766246672
101325.3877524924
101325.3980815847
101325.4187076343
101325.4275173192
101325.431134887
101325.4416755418
101325.4483928586
101325.4389505365
101325.4406275507
101325.4348866335
101325.4217819776
101325.4054759266
101325.3917149911
101325.3691916041
101325.341862312
101325.3161999883
101325.2956543085
101325.2667044179
101325.239869984
101325.2276451773
101325.2016984563
101325.1840112197
101325.1693163481
101325.1610277684
101325.1413727422
101325.1364594968
101325.1317416081
101325.1183719654
101325.1142814348
101325.1187857932
101325.1133493642
101325.1124620661
101325.130066279
101325.1349116254
101325.1483544521
101325.1688098829
101325.1908601611
101325.2142629282
101325.2409124834
101325.2695007256
101325.2979480103
101325.3241784805
101325.3504266319
101325.3705029417
101325.3934915244
101325.4148765425
101325.4290649712
101325.4417621011
101325.4606243683
101325.4699726168
101325.4763138357
101325.484994081
101325.4931612667
101325.4885682813
101325.4907483536
101325.4856905494
101325.4754072481
101325.4656104944
101325.4522774523
101325.4262002934
101325.4100047533
101325.3837436551
101325.3581220934
101325.3318369406
101325.3117528658
101325.2875084492
101325.2676715667
101325.2469616478
101325.2389859457
101325.2166555592
101325.2104672012
101325.1990579124
101325.1920087746
101325.1849304811
101325.1823911443
101325.17850991
101325.1766668358
101325.1828761766
101325.1853258746
101325.1931388115
101325.2132309592
101325.221143501
101325.2433869393
101325.2668452595
101325.2953569609
101325.313997088
101325.3476369063
101325.3786543505
101325.398093918
101325.4209518646
101325.453727107
101325.4615408132
101325.4872655207
101325.4998151412
101325.5137631845
101325.5236147791
101325.5353171386
101325.5432306622
101325.5421564236
101325.5508574351
101325.5462057143
101325.5447962629
101325.5385454868
101325.526464286
101325.5168604637
101325.4963583716
101325.4788285042
101325.4549185514
101325.4259295602
101325.404145774
101325.3793663169
101325.3544274263
101325.3334026522
101325.3225940078
101325.2937587714
101325.2855203909
101325.2754517774
101325.2649213587
101325.2466418504
101325.2551898254
101325.2454439062
101325.2354912631
101325.2449643122
101325.2430780786
101325.2445235906
101325.2586192804
101325.2675561958
101325.2811298125
101325.2999264771
101325.3245192363
101325.3449993726
101325.3705779404
101325.4021006861
101325.4336928853
101325.4468980032
101325.4861688343
101325.5098843632
101325.5218485522
101325.5482348129
101325.566338188
101325.5752158074
101325.5869803856
101325.604911955
101325.6017105327
101325.6132407142
101325.6160596544
101325.6129531861
101325.6072339655
101325.6177559361
101325.5961611586
101325.5854532322
101325.581272169
101325.5563745203
101325.530106202
101325.5125813239
101325.4905653001
101325.4511859233
101325.4412695518
101325.4152554273
101325.3945157766
101325.3740336906
101325.3696962721
101325.3445861971
101325.3362202632
101325.3365178061
101325.3204738669
101325.3179524789
101325.3192247977
101325.3185113271
101325.3098079383
101325.3220025385
101325.3309312377
101325.329369716
101325.3484744845
101325.3690577695
101325.3812734363
101325.3950530145
101325.4372231959
101325.452993002
101325.476328085
101325.5096540456
101325.5348401351
101325.5570363889
101325.5820112443
101325.6013216423
101325.615418753
101325.6364162238
101325.6444472371
101325.6538565641
101325.6674912813
101325.6647477643
101325.6696774238
101325.677246969
101325.6654053467
101325.6590329247
101325.6690424686
101325.6488342235
101325.6303762408
101325.6280160155
101325.6023374237
101325.5725668042
101325.5610283586
101325.5344642032
101325.4900546529
101325.4882188603
101325.4628676293
101325.4335958947
101325.4240903956
101325.4185900786
101325.3893275601
101325.3897069596
101325.3891996881
101325.3729484787
101325.371428632
101325.378088998
101325.3705693354
101325.3721479458
101325.3856690203
101325.3871878218
101325.3952197328
101325.4213255804
101325.429296237
101325.4436467915
101325.4755049243
101325.4972398648
101325.5212222552
101325.5454856039
101325.5742988045
101325.5948082307
101325.6181393937
101325.6459680117
101325.6550742832
101325.6700972525
101325.690539203
101325.6962429065
101325.6992807274
101325.7108431747
101325.7135191656
101325.7023404627
101325.7126249503
101325.7042760261
101325.6900677234
101325.691429598
101325.6782786905
101325.6624633345
101325.6380090298
101325.6270342725
101325.5969868699
101325.5752864317
101325.545692787
101325.5221882658
101325.5022138048
101325.4755870394
101325.4557855044
101325.4452506253
101325.4269938603
101325.4175614721
101325.4123007081
101325.3989769812
101325.4101880846
101325.3948077629
101325.3938223196
101325.4038603966
101325.4062828903
101325.3928805524
101325.430598871
101325.4286693043
101325.4393374799
101325.4575267412
101325.4816841353
101325.4930969235
101325.5272650428
101325.5430709567
101325.5698457899
101325.6014530913
101325.610792125
101325.6299148572
101325.6671329528
101325.6624439494
101325.6747358077
101325.6998451236
101325.6974182834
101325.7038806863
101325.6964030516
101325.7134090682
101325.6973624315
101325.686595615
101325.6886711125
101325.6728338212
)
;

boundaryField
{
    inlet
    {
        type            calculated;
        value           uniform 101325.0035327616;
    }
    outlet
    {
        type            calculated;
        value           uniform 101325.6687057636;
    }
    frontAndBack
    {
        type            empty;
    }
}


// ************************************************************************* //
