/*--------------------------------*- C++ -*----------------------------------*\
| =========                 |                                                 |
| \\      /  F ield         | OpenFOAM: The Open Source CFD Toolbox           |
|  \\    /   O peration     | Version:  v2012                                 |
|   \\  /    A nd           | Website:  www.openfoam.com                      |
|    \\/     M anipulation  |                                                 |
\*---------------------------------------------------------------------------*/
FoamFile
{
    version     2.0;
    format      ascii;
    class       volScalarField;
    location    "0.01";
    object      T;
}
// * * * * * * * * * * * * * * * * * * * * * * * * * * * * * * * * * * * * * //

dimensions      [0 0 0 1 0 0 0];


internalField   nonuniform List<scalar> 
1000
(
299.9815611858391
299.985049331277
299.9802276844614
299.9720124117015
299.9704873224414
299.9663860807164
299.9628812780813
299.9629548964808
299.9586205250399
299.958421535894
299.9588173831111
299.9589905769523
299.9601934449553
299.9616404203757
299.9630546063159
299.967315314912
299.970099480834
299.9746775188102
299.9800470277362
299.9842738641458
299.9899740953281
299.9954024360964
300.0009848064053
300.0067284637198
300.0120774720424
300.0176218194699
300.0225439592169
300.0271218232251
300.0314829700528
300.0349437713535
300.039597165537
300.0405143407914
300.0404733640046
300.0405127851395
300.039849328705
300.0397891007449
300.0382105869349
300.0361318373555
300.0349354739369
300.0304320459634
300.0267601051854
300.0233030190208
300.0162671836873
300.0117862543515
300.0061893099373
299.9995905688585
299.9947347679336
299.9889014550495
299.9834044935148
299.978473656471
299.9734640935781
299.9691122828388
299.9645443790986
299.9602345684297
299.9599311631753
299.9600192947007
299.9600653809292
299.9603833867327
299.9612643894569
299.9617881601514
299.9636881641014
299.9659827810682
299.9682526381789
299.9724314187208
299.9764630380395
299.9810668537446
299.9870151613878
299.9923456661464
299.9983430304668
300.0045254156969
300.0098517433171
300.0155028680233
300.0207313975268
300.025487463706
300.0301526493994
300.0352329602215
300.0394754143356
300.039699613051
300.0396093559706
300.0395694158114
300.0391711153714
300.0384771363308
300.0379036241266
300.0359672297619
300.0343979210348
300.0320092453074
300.0281989796183
300.0250986224804
300.0200097157473
300.0148986804761
300.0096407950008
300.0031419279845
299.9974991824262
299.9912707152038
299.9854002195219
299.9800433724726
299.9746091310394
299.9701148280396
299.9642488135336
299.9608196165735
299.9607482290641
299.9608428741635
299.9608456788481
299.9612933292993
299.9617267832743
299.9626022701822
299.9641193760499
299.9655423277778
299.9683383971444
299.9710396451624
299.9746134436931
299.9792081863955
299.9836321102517
299.9892457659648
299.9950383145376
300.0008450861991
300.0070690561081
300.0130807199637
300.0187718018948
300.0242789970217
300.0291475165898
300.0351683137166
300.0387348496612
300.0390276390376
300.0389914901702
300.0387310624724
300.0387752485927
300.0379323042116
300.0371314098231
300.0364237210524
300.0339907022707
300.0325370672478
300.0294589132635
300.0257785196999
300.022541355944
300.017099577279
300.012310894989
300.006877145768
300.0004379139851
299.9946710832972
299.9883013273638
299.982214294369
299.976387617465
299.9710620241137
299.9642508621338
299.9612537654831
299.9612527398751
299.9612855003139
299.9613004965795
299.9619622718075
299.9621052991743
299.9628760917738
299.9645984577264
299.9652952772312
299.9679451378054
299.9706512124678
299.9730753583644
299.9778963407636
299.9815707681162
299.9865764963061
299.9924955908955
299.9975768827833
300.0041237897346
300.0101268057707
300.0160202859072
300.0224266075206
300.0275957451172
300.0349587471282
300.0383130140872
300.0383293338464
300.0383115482779
300.0382630297407
300.0379197476488
300.0375483806675
300.0369309754835
300.0356827128223
300.0345351964374
300.0324521989324
300.0300504788763
300.0273111480913
300.0234172516976
300.0194813104985
300.0147412084123
300.009278303071
300.0037666757525
299.9976116588884
299.9913022884313
299.9850362627642
299.9785533357999
299.9727766998226
299.9646718761622
299.9618885695923
299.9618753163571
299.961759277435
299.9620806796927
299.9622591511019
299.9625066278294
299.9637159455827
299.9641811423041
299.9657478272421
299.9679824134343
299.9694218307727
299.9730399509208
299.9761782531648
299.9796679152263
299.9850746421903
299.9894067750392
299.9950570968302
300.0012029145566
300.0069541517773
300.0134784828935
300.0197975419547
300.02563484438
300.0334583325927
300.0377367903199
300.0378097500637
300.0377901903231
300.0377357971817
300.0373112593526
300.0373003120853
300.0363985007357
300.0354507556847
300.0346036951928
300.0322340634444
300.0308213600973
300.0280202329303
300.0243296202371
300.0214420725383
300.0164030252664
300.0116651669992
300.0065936495863
300.0002467983562
299.9944023104934
299.9878797064797
299.9811484198067
299.9751580531895
299.9667860264049
299.962245261614
299.9621788707657
299.9621947325106
299.9622724435652
299.9625331707595
299.9629620702316
299.9635430778
299.9645922660085
299.9658222034647
299.9673899814831
299.9696936504397
299.9720807176477
299.9752543305083
299.9789257536983
299.9829281167821
299.9877811244908
299.992787434385
299.9984693373574
300.0044278804032
300.010585829404
300.0171244489828
300.0232789135505
300.0307734238024
300.0370959183354
300.0373941899686
300.0373716392449
300.0373100726608
300.0371560678283
300.0367704505322
300.0362809940975
300.0354790192833
300.0342742775792
300.0327739895592
300.0309879526543
300.0283068874395
300.0256269735621
300.0222406772824
300.0179174341344
300.013755578048
300.0084576043488
300.0027986289153
299.9970327184457
299.9903891051322
299.9838659287829
299.9774382072945
299.9695404383615
299.9631319532657
299.9628335478363
299.9628248831842
299.9629669096897
299.9630785664563
299.9634164673269
299.9641452584078
299.9647221198999
299.9658588736943
299.9675935849754
299.9689931592735
299.9716345842122
299.974512693907
299.9773867626679
299.9816436963642
299.9859377968325
299.990470393807
299.9962574074151
300.0017897551291
300.0077623398601
300.0144081049376
300.0206971760203
300.0271577421863
300.0356160049182
300.0370327460982
300.0370294042197
300.0369711969993
300.036858603153
300.0364992858808
300.0361601995004
300.0353314475522
300.0340686377818
300.0334151914797
300.0310169018097
300.0288454435145
300.0267908801325
300.0227974700521
300.0194921867894
300.0153471783114
300.0101528736731
300.0051879404263
299.9993553986405
299.993054398427
299.9867483620105
299.9800256170183
299.9734374537765
299.9646499466737
299.9631608322306
299.9630874930475
299.9630820997733
299.9634351880187
299.9635800022505
299.9640610155796
299.9650983284613
299.965633954338
299.9673208225987
299.969048037781
299.9708390709552
299.973917732743
299.976600786559
299.9802960712126
299.984559915788
299.9888530254257
299.9941812794397
299.9995796364035
300.0054732329693
300.0117401664246
300.0181693332929
300.0243144623874
300.0328527186844
300.0364915651897
300.0365329008239
300.036441910949
300.036439383102
300.0360559098536
300.0356225769983
300.035302536553
300.0339500515792
300.0330698046827
300.0315285552747
300.0291760195988
300.0272171029217
300.0239666816432
300.0205632968871
300.0167798705784
300.0119980263682
300.0072023375622
300.0015963414183
299.9956038216992
299.9894049531684
299.98258652797
299.9763940758982
299.9672367334206
299.9637561912241
299.9637536643514
299.9636253830606
299.9638510181086
299.9640768624551
299.9643860609303
299.9651750217388
299.9658488956812
299.9672519923084
299.9687851192611
299.9704930212841
299.9733445674809
299.9758046498873
299.9792519408398
299.9833245886726
299.9871865649828
299.9923821509123
299.9974763562527
300.0030283329476
300.0093542305397
300.0153930976447
300.0217492099001
300.0291115971337
300.0357160781891
300.0360658710944
300.0360240668343
300.03599142571
300.0358045415429
300.0353417891454
300.0350397833701
300.0340492300977
300.0328919836871
300.0318076594534
300.0296377793002
300.0274495014759
300.0251051658037
300.0213988690545
300.0179421240477
300.0139656914733
300.0086175730154
300.0038122359936
299.9981050329829
299.9915735081399
299.9855347248791
299.9789326605015
299.9712595795813
299.9645156732935
299.9641465112323
299.9641432029042
299.964262789156
299.9643896707382
299.9647515416497
299.9654238291341
299.9659787418275
299.9672316727152
299.9687055887921
299.9700725575698
299.972838779444
299.9750346935802
299.9781705311004
299.982112265557
299.9856212413471
299.9906687840561
299.9955082897413
300.0007407733406
300.0070080451785
300.0127300044526
300.0192246580414
300.0255047516891
300.0339415699167
300.0355500114576
300.0356114024748
300.0356222813008
300.035305407291
300.0351738994526
300.0347493075682
300.0337534375851
300.0333273819917
300.0316560374068
300.0299931605742
300.0284350016691
300.025183655264
300.0227963844773
300.0192547655688
300.0147516676704
300.0109680048261
300.005469084117
300.0000196906709
299.9944591735752
299.9878169938488
299.9814828492078
299.9751157836551
299.966274188073
299.9646242958438
299.9645939502614
299.9646367901031
299.9647713911226
299.9651422846958
299.9654043257923
299.9663215459678
299.9671654967961
299.9682884708273
299.9702869109238
299.9718942096004
299.9746346662781
299.977479772448
299.9805931650648
299.9848496817361
299.9888143695317
299.9936487358394
299.9990184261688
300.0043017191097
300.0103827685405
300.016606996422
300.0223539157814
300.030567520223
300.0350072511986
300.0351851701678
300.0351956857806
300.0349641331271
300.0349293548711
300.0344683520566
300.0336794530317
300.0332347425009
300.0316999408569
300.0303294842425
300.0286930325647
300.0259310758498
300.023610199341
300.0201288966844
300.0163272081244
300.0123567002132
300.0072142689579
300.0022857509053
299.9964739870451
299.9903320179522
299.9841518204897
299.9778558639149
299.9693858599162
299.9651827126854
299.9649865551939
299.9650207096187
299.9652441578054
299.965239029223
299.9658305169971
299.9665390086013
299.9669567173181
299.9686259483657
299.9698030622633
299.9715147937521
299.9742491201549
299.9764622073926
299.9799057066292
299.9835706277249
299.9873825571352
299.9922458501412
299.9970056293291
300.0023958602809
300.0082200579176
300.0140333576789
300.0202253888997
300.0267823970776
300.0339894479382
300.0347519238509
300.0347367594095
300.0346097344382
300.0345688790502
300.0340767490345
300.0335314829454
300.0330918132414
300.0315449470309
300.0306915640406
300.0290360263334
300.0262388981351
300.0245633335405
300.0210338709387
300.0172939120525
300.0139834876441
300.0087513365671
300.0039836250598
299.9987864981405
299.9924514993403
299.9867637618917
299.98039110567
299.9735464574223
299.9662230207912
299.9656205674087
299.9655643991405
299.9656589917369
299.9658699466817
299.9659459222487
299.9666749388823
299.9672234564306
299.9677543616547
299.9697239371686
299.9709844697923
299.9730900949511
299.9762194895264
299.9787481773172
299.9825195705839
299.986643768516
299.9907061655342
299.9956773916304
300.0006232061971
300.0060037403198
300.0117731418118
300.0175058867966
300.0231165101673
300.0309516882681
300.0335470999437
300.0338273959935
300.0337528877673
300.0338700856246
300.0335355678959
300.0333532518262
300.0332555065053
300.0322787313837
300.0313529821628
300.0300734397484
300.0280661927555
300.0258208489792
300.0228766897432
300.0195941622812
300.0158232896879
300.0113725357513
300.0065905262492
300.001173048673
299.9952825053358
299.9892317939722
299.9826257332355
299.9760732441977
299.9669718022375
299.9639765683148
299.9617633428149
299.9612046905658
299.9604613909374
299.9600262676464
299.9597539695143
299.9596541939009
299.9599253197896
299.9604986560994
299.9618949785593
299.9629694641412
299.9651664802361
299.9681012812713
299.9709838606754
299.9751879623073
299.9791432279869
299.9837174997932
299.9896190980668
299.9951561722015
300.0015038981227
300.0084110221246
300.0157229970473
300.0221072169112
300.0300779024737
300.032968797111
300.036227632235
300.0376756513702
300.0386735904723
300.0397834332471
300.0406554338366
300.0409651026234
300.0411470997494
300.0405841020777
300.0394706336162
300.0377872867783
300.0350353344934
300.0321111782056
300.027885471051
300.0228940763234
300.0182515776152
300.0118762557962
300.0057842507301
299.9996385226628
299.9915296133042
299.9856268327001
299.9782560098008
299.9709043131413
299.9671355526822
299.9650734947011
299.9629852518761
299.9623493774895
299.9620274896228
299.9619595348106
299.9621017647775
299.9626950677141
299.9635316280799
299.964450690215
299.9662905462586
299.9685457228088
299.9710551756228
299.9746774267461
299.97885099064
299.9831686228389
299.9880746121534
299.9938845525073
299.9999304763829
300.0059166003664
300.012490993558
300.0196747808747
300.0253344135917
300.031572812203
300.0348353660195
300.0374866906853
300.038953420069
300.0399682651154
300.0406795115701
300.0410255100923
300.040897450238
300.0405315373986
300.039519328689
300.0377716976261
300.0359496397976
300.0334077459036
300.0295603959574
300.0252731271932
300.0202054010986
300.0145658108866
300.0083395954264
300.0019279451584
299.9953686955438
299.9884720994395
299.9814417254418
299.9755924851557
299.9690753087053
299.966530575866
299.9642065247601
299.9627439175272
299.9620624062137
299.9619318418843
299.9622298636079
299.9630506841447
299.9636210814938
299.964765986176
299.9666322866325
299.9684085059064
299.9707725296539
299.9742057860265
299.977759178691
299.9819147169458
299.9868538935894
299.9920465139662
299.9976103946162
300.0041143531031
300.0100760066562
300.0162630797953
300.0224857312124
300.0294260848121
300.032973884475
300.0367477877612
300.0386736484983
300.0399948203502
300.0410922811006
300.0415919221563
300.0414240003291
300.0405718060233
300.0395901190563
300.038581845292
300.0362082149069
300.0335939725827
300.0308078614644
300.0266570296703
300.0221888189789
300.0169584065725
300.010890146675
300.0044746031028
299.9977817129926
299.9912831035439
299.9846792175467
299.978160465058
299.9718889182059
299.96790102108
299.9651944026471
299.9635030428196
299.9624792563611
299.9618011259327
299.9624305004249
299.9624847308614
299.9635954816475
299.9650233202966
299.9660405258147
299.9684292413496
299.9708879823921
299.9733984323306
299.977149667416
299.9812059232041
299.9853907542778
299.990532520549
299.9961310508631
300.0019746862924
300.0082253713613
300.0141667248871
300.0202332321973
300.0259961313785
300.0320023369813
300.035498598324
300.0380795011912
300.039847067206
300.0410772935637
300.0419981419794
300.0419844735405
300.041478976013
300.0404849414831
300.0393552300707
300.0374106957622
300.0345820455771
300.0317745482902
300.0286267975479
300.0238850685861
300.0189570239962
300.0139947416314
300.0075792635862
300.0011931040998
299.9945161958243
299.9877494756848
299.9813197092165
299.9754179080701
299.9693781847105
299.9665635074298
299.9642697002185
299.9629570436741
299.9620762515822
299.9622357333909
299.962487417131
299.9631283175008
299.9643835930948
299.9656804987729
299.9674626440111
299.9700379254672
299.972823669441
299.9758327722874
299.9797703629278
299.9840212260657
299.9885647952865
299.9937859154772
299.999596698147
300.0054780572748
300.0113074646181
300.0172780588136
300.0232980055665
300.029034041521
300.033432763812
300.0363659508126
300.0387713392432
300.0403184372275
300.0415212391308
300.042034131075
300.041870566101
300.0408409544178
300.0401406969866
300.0384415166683
300.035284833727
300.0329968451436
300.0295545736749
300.0251634363044
300.0213885323094
300.0158560825852
300.0100175839619
300.0045900919466
299.9980701983247
299.9912828182693
299.9851548959188
299.9790487578571
299.9727724450316
299.9683959569429
299.9657548528285
299.9643805604403
299.9628514556596
299.9627117563627
299.9630317104914
299.9633932811957
299.9643155388633
299.9659665279933
299.9673844727035
299.9695027353005
299.9722276949531
299.9749474380509
299.9787280068469
299.9828445818186
299.9870957809605
299.9922017860067
299.997604701936
300.0035463407208
300.0093426259144
300.0150554218118
300.0209928970478
300.0263337838985
300.0320085912564
300.0349249315461
300.0375562814181
300.0392298109184
300.0408034659068
300.0414163268725
300.0415385220724
300.0414776220126
300.0407345962143
300.0387099890493
300.0370406745025
300.0339328981577
300.030416399166
300.0269805775587
300.022237303281
300.0171808810362
300.0121633725466
300.0062258006446
299.9997831661844
299.9937600562915
299.9873183157844
299.9809022179567
299.9750981247742
299.9693597982956
299.966189292931
299.9640549585121
299.9623213584563
299.9618394811592
299.9621993286765
299.9628475845212
299.9633483716175
299.9648573424199
299.9667191332699
299.9685732061257
299.9712909214051
299.9738159088955
299.9771496259359
299.9811859756107
299.9848720716644
299.9899284563207
299.9952791733069
300.0004952532383
300.0065201436651
300.0125730748393
300.018129340562
300.0239601001969
300.0291451792389
300.0337889977835
300.03617590665
300.0375419536936
300.0395377389905
300.0403477885138
300.0405541303599
300.0406873834585
300.0406266718368
300.0395341425433
300.0376690529112
300.0349327191223
300.0319619660181
300.0283288560083
300.0238644204659
300.0192248405111
300.0137384733911
300.0079774229826
300.0026266905857
299.9960101193948
299.9898584486116
299.9838788633832
299.9770882314097
299.9720355116172
299.9666382207687
299.9642061863389
299.962229753616
299.9611458899716
299.9608177753165
299.9615011798791
299.9621647826068
299.9635703478344
299.9652891903611
299.9669905806676
299.9694956027157
299.9721762315587
299.9752355273814
299.9787884940767
299.9827540611306
299.9871808953029
299.991870004569
299.9974878539499
300.0030250957059
300.0084699608962
300.0149794436207
300.0203864112297
300.0256441732833
300.0311568506958
300.0345013681215
300.0364412219154
300.0377277943786
300.0388700162633
300.0389943142504
300.0385686495964
300.0387058343154
300.0382383276865
300.0367703025344
300.0355157570985
300.0331705559658
300.029140309211
300.0257440953775
300.0209414271305
300.0144424583632
300.0095299743074
300.0032919325912
299.996518835325
299.9913339664304
299.9842701058859
299.9785458907836
299.9732918454613
299.9678940235283
299.964181708655
299.961230142873
299.9609458062594
299.9587761050485
299.9596557445316
299.9603208948234
299.9618989335439
299.9624901302279
299.964461864889
299.9674465072595
299.968459729368
299.9712625784484
299.9753877227234
299.9777470177528
299.9822557365249
299.9902938343075
299.9934956309126
300.0037479789794
300.0094116848207
)
;

boundaryField
{
    inlet
    {
        type            fixedValue;
        value           uniform 300;
    }
    outlet
    {
        type            inletOutlet;
        inletValue      uniform 300;
        value           uniform 300.0130676384525;
    }
    frontAndBack
    {
        type            empty;
    }
}


// ************************************************************************* //
