/*--------------------------------*- C++ -*----------------------------------*\
| =========                 |                                                 |
| \\      /  F ield         | OpenFOAM: The Open Source CFD Toolbox           |
|  \\    /   O peration     | Version:  v2012                                 |
|   \\  /    A nd           | Website:  www.openfoam.com                      |
|    \\/     M anipulation  |                                                 |
\*---------------------------------------------------------------------------*/
FoamFile
{
    version     2.0;
    format      ascii;
    class       volVectorField;
    location    "0.01";
    object      U;
}
// * * * * * * * * * * * * * * * * * * * * * * * * * * * * * * * * * * * * * //

dimensions      [0 1 -1 0 0 0 0];


internalField   nonuniform List<vector> 
1000
(
(-0.02049567809986607 0 0)
(-0.04864641697369596 0 0)
(-0.04831537077897604 0 0)
(-0.07465433027551292 0 0)
(-0.08193738856420871 0 0)
(-0.09390714520777138 0 0)
(-0.1052467134917437 0 0)
(-0.1061658153148969 0 0)
(-0.1186467395147763 0 0)
(-0.1194876236262558 0 0)
(-0.1188742078237382 0 0)
(-0.118890116843059 0 0)
(-0.1157075313250596 0 0)
(-0.1116494842508471 0 0)
(-0.1075889625930669 0 0)
(-0.09518380338180847 0 0)
(-0.08701527591938472 0 0)
(-0.07371287821619943 0 0)
(-0.05805258028879479 0 0)
(-0.04566886762817648 0 0)
(-0.0290929981255707 0 0)
(-0.01327256820514127 0 0)
(0.002944564609799284 0 0)
(0.01957340203857486 0 0)
(0.0350895753768166 0 0)
(0.05114007667568318 0 0)
(0.06533906322494505 0 0)
(0.07864017313055283 0 0)
(0.09098323694530351 0 0)
(0.101304028191566 0 0)
(0.1144358609950646 0 0)
(0.1171502075584677 0 0)
(0.1170103062296743 0 0)
(0.117146947186111 0 0)
(0.1152003475394105 0 0)
(0.1150365750038813 0 0)
(0.1104802462924937 0 0)
(0.1044800712215694 0 0)
(0.1010309558178366 0 0)
(0.08801435634566525 0 0)
(0.07740163987452731 0 0)
(0.06740728084231128 0 0)
(0.04705825178851064 0 0)
(0.03410033266400581 0 0)
(0.01790982813879053 0 0)
(-0.001181660528417631 0 0)
(-0.01522984979541498 0 0)
(-0.03210703153391015 0 0)
(-0.04801454292961174 0 0)
(-0.06227359936161084 0 0)
(-0.07676656187145214 0 0)
(-0.08935518608802678 0 0)
(-0.1025671312964505 0 0)
(-0.1150349008114796 0 0)
(-0.1159155666437725 0 0)
(-0.1156579860154883 0 0)
(-0.1155197797375103 0 0)
(-0.1146026283717733 0 0)
(-0.1120532631251665 0 0)
(-0.1105395033278456 0 0)
(-0.1050421445008391 0 0)
(-0.09840396133431299 0 0)
(-0.09183801271538575 0 0)
(-0.07974878860908981 0 0)
(-0.06808884687684305 0 0)
(-0.05477187067092152 0 0)
(-0.03756584890257815 0 0)
(-0.02214848983121944 0 0)
(-0.004799175480549441 0 0)
(0.01307968372125116 0 0)
(0.02848918752137431 0 0)
(0.04483402426341301 0 0)
(0.05995725364666776 0 0)
(0.07371564415344756 0 0)
(0.08720882747393079 0 0)
(0.1019026801282132 0 0)
(0.1141732920124433 0 0)
(0.1148215041809502 0 0)
(0.1145595969119325 0 0)
(0.1144433887766187 0 0)
(0.113292246511606 0 0)
(0.111285454435355 0 0)
(0.1096264727280627 0 0)
(0.1040257336685133 0 0)
(0.09948654616377989 0 0)
(0.09257790239044669 0 0)
(0.08155721492102148 0 0)
(0.07259021817257022 0 0)
(0.05787066032099222 0 0)
(0.04308662354822764 0 0)
(0.02787905499609959 0 0)
(0.009080816858418697 0 0)
(-0.007240796981736726 0 0)
(-0.02525627206251242 0 0)
(-0.0422375170885582 0 0)
(-0.05773233218682754 0 0)
(-0.07345438919036822 0 0)
(-0.08644673206239001 0 0)
(-0.1034244643366246 0 0)
(-0.1133406895139116 0 0)
(-0.1135472415567267 0 0)
(-0.1132734377070111 0 0)
(-0.1132654083374024 0 0)
(-0.1119702894729708 0 0)
(-0.1107163066849679 0 0)
(-0.1081836576849919 0 0)
(-0.103795194917943 0 0)
(-0.09967933119553292 0 0)
(-0.09159095126624556 0 0)
(-0.08377726272577023 0 0)
(-0.07343980430334207 0 0)
(-0.0601487422948879 0 0)
(-0.04735221152283511 0 0)
(-0.03111404099781223 0 0)
(-0.01435862507167375 0 0)
(0.002437302121723008 0 0)
(0.02044019791251194 0 0)
(0.0378287775326137 0 0)
(0.05428992368907734 0 0)
(0.07021887923198819 0 0)
(0.08430071519775086 0 0)
(0.1017149409158341 0 0)
(0.1120303377012561 0 0)
(0.1128772215111578 0 0)
(0.1127726530380235 0 0)
(0.1120193724437999 0 0)
(0.1121470952448873 0 0)
(0.1097089897721296 0 0)
(0.1073924631638243 0 0)
(0.105345588064175 0 0)
(0.09830839269210163 0 0)
(0.09410394651310174 0 0)
(0.08520079361678561 0 0)
(0.07455558687389892 0 0)
(0.06519256839447356 0 0)
(0.04945254284331006 0 0)
(0.03560152289865699 0 0)
(0.0198846894307682 0 0)
(0.0012590848381082 0 0)
(-0.0154216400956268 0 0)
(-0.03384650908540245 0 0)
(-0.05145386437938837 0 0)
(-0.06830859463425985 0 0)
(-0.08371294181663573 0 0)
(-0.1034163866615971 0 0)
(-0.1120859355586942 0 0)
(-0.1120889814441318 0 0)
(-0.1119942669047117 0 0)
(-0.1119509118330753 0 0)
(-0.1100366891870718 0 0)
(-0.1096230528734537 0 0)
(-0.1073933531880746 0 0)
(-0.1024109958875508 0 0)
(-0.1003950925718521 0 0)
(-0.09273009225470784 0 0)
(-0.08490221987313135 0 0)
(-0.07789014960240791 0 0)
(-0.06394545623814818 0 0)
(-0.05331627662285061 0 0)
(-0.03883673055578277 0 0)
(-0.02171540169648045 0 0)
(-0.007017004342602717 0 0)
(0.01191957143235143 0 0)
(0.02928378726398981 0 0)
(0.04633001352427137 0 0)
(0.06486404420997499 0 0)
(0.07980218866020848 0 0)
(0.1011124459205667 0 0)
(0.1108084437309194 0 0)
(0.1108556503837539 0 0)
(0.1108046902241955 0 0)
(0.110664147220559 0 0)
(0.1096713922290964 0 0)
(0.1085973246384177 0 0)
(0.1068112739834079 0 0)
(0.1032007888820626 0 0)
(0.09988190074683927 0 0)
(0.09385647289477132 0 0)
(0.08690952401551059 0 0)
(0.07898692829124022 0 0)
(0.06772427188847317 0 0)
(0.05634022126973586 0 0)
(0.04263007234651714 0 0)
(0.02682861720679713 0 0)
(0.01088635957106949 0 0)
(-0.006917053317796573 0 0)
(-0.02516735555041848 0 0)
(-0.04329260651149882 0 0)
(-0.06204476796322828 0 0)
(-0.07875507078857157 0 0)
(-0.1021986602994987 0 0)
(-0.1102507747382249 0 0)
(-0.1102906342809565 0 0)
(-0.1106259731938798 0 0)
(-0.1096957148238989 0 0)
(-0.1091795114736493 0 0)
(-0.1084634193971967 0 0)
(-0.104964947657354 0 0)
(-0.103619544184421 0 0)
(-0.09908673658314172 0 0)
(-0.09262296013366884 0 0)
(-0.08845967656065833 0 0)
(-0.07799250200185111 0 0)
(-0.06891557485588429 0 0)
(-0.05882160236974106 0 0)
(-0.04318111202369709 0 0)
(-0.03065176135203001 0 0)
(-0.01430858111499418 0 0)
(0.003469030073566837 0 0)
(0.02010495564914336 0 0)
(0.03897679352163232 0 0)
(0.05725531471876545 0 0)
(0.07413748363605981 0 0)
(0.0967671359121918 0 0)
(0.1091414423980424 0 0)
(0.109352540437103 0 0)
(0.1092959812723677 0 0)
(0.1091385645075091 0 0)
(0.1079106018874262 0 0)
(0.1078788504850681 0 0)
(0.1052704547604841 0 0)
(0.1025291386670953 0 0)
(0.1000791054204441 0 0)
(0.09322516512754435 0 0)
(0.08913912235717551 0 0)
(0.08103712912626228 0 0)
(0.07036229154279124 0 0)
(0.06201055285522347 0 0)
(0.04743529382907447 0 0)
(0.03373132714042246 0 0)
(0.01906224517279188 0 0)
(0.0007036191834459092 0 0)
(-0.01620143684660041 0 0)
(-0.03506850957420701 0 0)
(-0.05453952593429107 0 0)
(-0.07186723900744198 0 0)
(-0.09608476081866886 0 0)
(-0.1092200282322467 0 0)
(-0.1094120779919696 0 0)
(-0.1093658276012229 0 0)
(-0.1091408618819236 0 0)
(-0.1083881310042131 0 0)
(-0.1071469711768832 0 0)
(-0.1054649659024402 0 0)
(-0.1024295664784223 0 0)
(-0.09887189723147602 0 0)
(-0.09433976866000232 0 0)
(-0.0876758749401949 0 0)
(-0.08076878955974817 0 0)
(-0.07158846527427663 0 0)
(-0.06096814802734948 0 0)
(-0.04939110639258638 0 0)
(-0.03535439798507234 0 0)
(-0.02087221186276051 0 0)
(-0.004437722211187197 0 0)
(0.01279777191193797 0 0)
(0.03060999306271129 0 0)
(0.04952182115573948 0 0)
(0.06732346224384901 0 0)
(0.08900051908137271 0 0)
(0.1072870741024728 0 0)
(0.1081497278266813 0 0)
(0.1080849810683791 0 0)
(0.1079066749435597 0 0)
(0.1074611826208927 0 0)
(0.1063457921038461 0 0)
(0.1049300320987445 0 0)
(0.1026103708958107 0 0)
(0.09912583227361708 0 0)
(0.09478630205629611 0 0)
(0.08962045968426857 0 0)
(0.0818659506886863 0 0)
(0.07411461985719693 0 0)
(0.06432015461935039 0 0)
(0.05181552370492612 0 0)
(0.0397779123182434 0 0)
(0.02445366213198368 0 0)
(0.008085394650248687 0 0)
(-0.008592695269337836 0 0)
(-0.0278099868472495 0 0)
(-0.04667875298561675 0 0)
(-0.06527182529662491 0 0)
(-0.08811731271501726 0 0)
(-0.1066553482836384 0 0)
(-0.1075182758870507 0 0)
(-0.1075434008227395 0 0)
(-0.1071323534667143 0 0)
(-0.106809417905043 0 0)
(-0.1058320527479915 0 0)
(-0.1037238415893589 0 0)
(-0.102055104879961 0 0)
(-0.09876657052282892 0 0)
(-0.09374918586894171 0 0)
(-0.08970065639365458 0 0)
(-0.08205931874507423 0 0)
(-0.07373453432408456 0 0)
(-0.06542089331262591 0 0)
(-0.05310711686072456 0 0)
(-0.04068617133404647 0 0)
(-0.02757474705087422 0 0)
(-0.01083550102963984 0 0)
(0.005166825625773566 0 0)
(0.02244403544156869 0 0)
(0.04166256459115335 0 0)
(0.05985871115307377 0 0)
(0.07854067355179094 0 0)
(0.103007107747109 0 0)
(0.1071045712948473 0 0)
(0.107095315827125 0 0)
(0.1069270494657925 0 0)
(0.1066008175887393 0 0)
(0.1055612430917565 0 0)
(0.1045805034006117 0 0)
(0.1021837394103299 0 0)
(0.09853126515400402 0 0)
(0.09664131074800088 0 0)
(0.08970460114975289 0 0)
(0.08342394826028084 0 0)
(0.0774811519583805 0 0)
(0.06593058920118315 0 0)
(0.05636958277662794 0 0)
(0.04438073628073626 0 0)
(0.02935739264523905 0 0)
(0.01499592474099607 0 0)
(-0.001873985922083457 0 0)
(-0.02009968862599328 0 0)
(-0.03834081375330659 0 0)
(-0.05778645038318778 0 0)
(-0.07684358575998601 0 0)
(-0.1022635160931796 0 0)
(-0.1065711979789328 0 0)
(-0.1067828657817041 0 0)
(-0.1067989084803978 0 0)
(-0.1057775018343003 0 0)
(-0.1053587046269219 0 0)
(-0.1039673533985794 0 0)
(-0.1009667481782354 0 0)
(-0.09941737074687658 0 0)
(-0.09453790934317087 0 0)
(-0.08954171991559219 0 0)
(-0.08436077925875193 0 0)
(-0.07545526614871317 0 0)
(-0.06769401049183819 0 0)
(-0.05700479777264521 0 0)
(-0.04467083870888196 0 0)
(-0.03225275623736547 0 0)
(-0.01683980709967219 0 0)
(-0.001225606417984421 0 0)
(0.01582228616708469 0 0)
(0.03394924369497955 0 0)
(0.05254401022847987 0 0)
(0.0703193760630689 0 0)
(0.09501427393535146 0 0)
(0.1055391098233161 0 0)
(0.1056588961290816 0 0)
(0.1053960425533691 0 0)
(0.1053889014709905 0 0)
(0.1042796701358437 0 0)
(0.1030262719896646 0 0)
(0.1021006190001259 0 0)
(0.09818875168248521 0 0)
(0.09564282444418987 0 0)
(0.09118508413410409 0 0)
(0.08438063052920775 0 0)
(0.07871475012319562 0 0)
(0.0693132621716207 0 0)
(0.05946920504082587 0 0)
(0.04852597783842742 0 0)
(0.03469470794802984 0 0)
(0.02082325791620702 0 0)
(0.004607931808904957 0 0)
(-0.01272549183875733 0 0)
(-0.03065610669187866 0 0)
(-0.05037909930241551 0 0)
(-0.06829144307415838 0 0)
(-0.09478016439248814 0 0)
(-0.1048483130142924 0 0)
(-0.1048559069807627 0 0)
(-0.1052266911303611 0 0)
(-0.104573636496565 0 0)
(-0.1039204557037406 0 0)
(-0.1030266828020092 0 0)
(-0.1007443145241751 0 0)
(-0.09879496480303276 0 0)
(-0.09473621558377665 0 0)
(-0.09030141118349701 0 0)
(-0.08536115230080432 0 0)
(-0.07711251871804736 0 0)
(-0.06999635526903554 0 0)
(-0.06002456986977479 0 0)
(-0.04824403061098197 0 0)
(-0.03707268792088624 0 0)
(-0.02204410956520679 0 0)
(-0.007308876106199127 0 0)
(0.008750471050826592 0 0)
(0.02704802602816869 0 0)
(0.04451532868895666 0 0)
(0.0628999866439012 0 0)
(0.08419502037486941 0 0)
(0.1032972645239551 0 0)
(0.1043090356531685 0 0)
(0.1041881484700389 0 0)
(0.1040937310403542 0 0)
(0.10355314425583 0 0)
(0.1022146210180384 0 0)
(0.1013411274401505 0 0)
(0.09847625922764779 0 0)
(0.09512890597792975 0 0)
(0.09199263957200374 0 0)
(0.08571686279671838 0 0)
(0.07938730324279339 0 0)
(0.07260668054449794 0 0)
(0.06188667413955968 0 0)
(0.05188810775516612 0 0)
(0.04038684456551662 0 0)
(0.02491736021012959 0 0)
(0.01101787282103255 0 0)
(-0.005490533435285593 0 0)
(-0.02438262358501612 0 0)
(-0.04185003865750275 0 0)
(-0.06094698491747709 0 0)
(-0.08314210543612897 0 0)
(-0.1026505185795783 0 0)
(-0.1037196454154757 0 0)
(-0.1037301689102212 0 0)
(-0.1033832854603652 0 0)
(-0.1030149223188141 0 0)
(-0.101967225142194 0 0)
(-0.1000227628669587 0 0)
(-0.09841785403819664 0 0)
(-0.09479435942412152 0 0)
(-0.09053112696105189 0 0)
(-0.08657748105739196 0 0)
(-0.0785767272830908 0 0)
(-0.07222485564922165 0 0)
(-0.06315267871359995 0 0)
(-0.05174897764593189 0 0)
(-0.0415988988338914 0 0)
(-0.02699866202847827 0 0)
(-0.01299975212117174 0 0)
(0.00213295787758871 0 0)
(0.02026116847828756 0 0)
(0.03681145126558727 0 0)
(0.05559843064593289 0 0)
(0.07375963509021678 0 0)
(0.09817168093841927 0 0)
(0.1028187662887749 0 0)
(0.102994441811738 0 0)
(0.1030258276380012 0 0)
(0.1021106653349396 0 0)
(0.1017310489771488 0 0)
(0.1005028367760427 0 0)
(0.09762235264413409 0 0)
(0.09638928291059237 0 0)
(0.09155503101915093 0 0)
(0.0867446822313514 0 0)
(0.08223750560611091 0 0)
(0.07283432266513588 0 0)
(0.06592854713625146 0 0)
(0.05568548516072842 0 0)
(0.04266089906774276 0 0)
(0.03171485196533596 0 0)
(0.01581065836126635 0 0)
(4.715768029880232e-05 0 0)
(-0.01603445208732452 0 0)
(-0.0352476840629135 0 0)
(-0.05357015907801167 0 0)
(-0.07198454223019903 0 0)
(-0.09756645681463205 0 0)
(-0.102335725250562 0 0)
(-0.1024241136506334 0 0)
(-0.102300387092025 0 0)
(-0.1019104372902221 0 0)
(-0.100837156126597 0 0)
(-0.1000792144703096 0 0)
(-0.09742611873079363 0 0)
(-0.09498478924750341 0 0)
(-0.0917361693667125 0 0)
(-0.08595579223467012 0 0)
(-0.08130606576551863 0 0)
(-0.07337851851852498 0 0)
(-0.0651496305382179 0 0)
(-0.05614286539040164 0 0)
(-0.04383188232639321 0 0)
(-0.03236506982437815 0 0)
(-0.01837891264702668 0 0)
(-0.002848191740908659 0 0)
(0.01243445780587511 0 0)
(0.03002402112803089 0 0)
(0.04802614620022101 0 0)
(0.0646519602929386 0 0)
(0.08840702674615869 0 0)
(0.1012486160701657 0 0)
(0.1017632953922039 0 0)
(0.1017935407609947 0 0)
(0.1011238482852219 0 0)
(0.1010234829944166 0 0)
(0.09968989941228648 0 0)
(0.0974089865128145 0 0)
(0.0961218200446223 0 0)
(0.0916825667192684 0 0)
(0.0877209767378839 0 0)
(0.08298304160210127 0 0)
(0.07499542860100507 0 0)
(0.06828050900223573 0 0)
(0.05821463689880041 0 0)
(0.04722419942784157 0 0)
(0.03573270615434557 0 0)
(0.02086192061628621 0 0)
(0.00660240502027605 0 0)
(-0.01020995036661968 0 0)
(-0.02797383336518437 0 0)
(-0.04585172267105962 0 0)
(-0.06406078516731946 0 0)
(-0.08855101190326603 0 0)
(-0.1007111068367078 0 0)
(-0.1012762105970431 0 0)
(-0.101186994644023 0 0)
(-0.1005568989530968 0 0)
(-0.1005692949793046 0 0)
(-0.09887038120402054 0 0)
(-0.09682653760925217 0 0)
(-0.09557520528079276 0 0)
(-0.09078071405978141 0 0)
(-0.08729661048856295 0 0)
(-0.08230288714678879 0 0)
(-0.07450065381071333 0 0)
(-0.06809374985927376 0 0)
(-0.05816510537278789 0 0)
(-0.04758359626618426 0 0)
(-0.03650471003885393 0 0)
(-0.02254750872895784 0 0)
(-0.008686780190804672 0 0)
(0.006935033300763231 0 0)
(0.02380142924561383 0 0)
(0.04072527788904023 0 0)
(0.05854744381486057 0 0)
(0.07733889825298504 0 0)
(0.09834105926500553 0 0)
(0.1004595597584436 0 0)
(0.100402913443238 0 0)
(0.1000346331951527 0 0)
(0.09991812124304439 0 0)
(0.09862094829863315 0 0)
(0.09711946458306206 0 0)
(0.09584455136684981 0 0)
(0.09141745733715319 0 0)
(0.08874588205062094 0 0)
(0.08384780306051105 0 0)
(0.07597203023358484 0 0)
(0.07093194005610801 0 0)
(0.06047363105305254 0 0)
(0.04976067632732246 0 0)
(0.04031852194173121 0 0)
(0.02520646288744987 0 0)
(0.0118398093796202 0 0)
(-0.003130384801067419 0 0)
(-0.02129988100156152 0 0)
(-0.03797665639839294 0 0)
(-0.05614440845773484 0 0)
(-0.07684122266372449 0 0)
(-0.09803512777432924 0 0)
(-0.1000697943034234 0 0)
(-0.1004185768799642 0 0)
(-0.09997040204514489 0 0)
(-0.09931029237170476 0 0)
(-0.09880626450821298 0 0)
(-0.09614263501778644 0 0)
(-0.09399948079164483 0 0)
(-0.09208206476133204 0 0)
(-0.08596364448921431 0 0)
(-0.08250835513915922 0 0)
(-0.07711085568359499 0 0)
(-0.06851166265808697 0 0)
(-0.06208976737095136 0 0)
(-0.05173485939875774 0 0)
(-0.04074381538442135 0 0)
(-0.02946597656483297 0 0)
(-0.01455061743956979 0 0)
(-0.0001528512598379541 0 0)
(0.01632269302457662 0 0)
(0.03361163367738638 0 0)
(0.05164247318693264 0 0)
(0.0693888018235414 0 0)
(0.09150035354802197 0 0)
(0.1015205250410432 0 0)
(0.1016843834799003 0 0)
(0.1012966644655826 0 0)
(0.1008647811556793 0 0)
(0.09862003026526672 0 0)
(0.09637700581543365 0 0)
(0.09461758307764175 0 0)
(0.09052558804196326 0 0)
(0.08671093184098348 0 0)
(0.08215414514147633 0 0)
(0.07571628545115559 0 0)
(0.06888008711859339 0 0)
(0.06058730849474517 0 0)
(0.0513946327346203 0 0)
(0.03995059336919596 0 0)
(0.0280277394259423 0 0)
(0.01493585152389213 0 0)
(-0.0001501932546283594 0 0)
(-0.01513463300923249 0 0)
(-0.03163878420398755 0 0)
(-0.0489346599908342 0 0)
(-0.0641722040488699 0 0)
(-0.08285779073080193 0 0)
(-0.09012555021056431 0 0)
(-0.08990220653014391 0 0)
(-0.08687831592068192 0 0)
(-0.08306407915294348 0 0)
(-0.07912836525737982 0 0)
(-0.07515538706693339 0 0)
(-0.07096965172892723 0 0)
(-0.06593905729006655 0 0)
(-0.06155847972519157 0 0)
(-0.05543443634123198 0 0)
(-0.04977617166120074 0 0)
(-0.04256662092398776 0 0)
(-0.03382528693253227 0 0)
(-0.02555307980251586 0 0)
(-0.01493840659977004 0 0)
(-0.004084428490479091 0 0)
(0.00866227353804512 0 0)
(0.02136805472102137 0 0)
(0.03397931363104172 0 0)
(0.04909151005066755 0 0)
(0.06247435900883481 0 0)
(0.0739223610968172 0 0)
(0.09081507275095355 0 0)
(0.09972128165716264 0 0)
(0.1006922410310141 0 0)
(0.09878905939377131 0 0)
(0.09229490469988129 0 0)
(0.08559688993167992 0 0)
(0.07815512757567386 0 0)
(0.07120295697360217 0 0)
(0.06468343735002126 0 0)
(0.05733487280759822 0 0)
(0.05080636383832488 0 0)
(0.04449222086131718 0 0)
(0.0380180155553405 0 0)
(0.03031019124361252 0 0)
(0.02214161892064394 0 0)
(0.01347478055440026 0 0)
(0.003581909105363754 0 0)
(-0.007474102420353845 0 0)
(-0.01930477381774095 0 0)
(-0.0319540463322399 0 0)
(-0.04673314474399694 0 0)
(-0.05811228755446995 0 0)
(-0.07471119322919148 0 0)
(-0.08626996613160522 0 0)
(-0.09900133130624875 0 0)
(-0.1028999364024716 0 0)
(-0.1014626206570971 0 0)
(-0.09824189266129012 0 0)
(-0.09246382862165674 0 0)
(-0.08582518198706542 0 0)
(-0.07915722247232446 0 0)
(-0.07279406451646747 0 0)
(-0.06623366553981569 0 0)
(-0.06010228466280509 0 0)
(-0.05455967581412227 0 0)
(-0.04702930575740668 0 0)
(-0.04004641376858098 0 0)
(-0.03201623548258938 0 0)
(-0.02096846438028583 0 0)
(-0.01054287353620611 0 0)
(0.001020250041032648 0 0)
(0.01497716560630498 0 0)
(0.02735415882850803 0 0)
(0.04086814874780573 0 0)
(0.05545166234250716 0 0)
(0.06807073982357915 0 0)
(0.07852367849589605 0 0)
(0.09277874738456579 0 0)
(0.09932762658281862 0 0)
(0.09952128170876776 0 0)
(0.09651822895473695 0 0)
(0.0895816191904502 0 0)
(0.0827733036345713 0 0)
(0.07465968371349771 0 0)
(0.0668680040671923 0 0)
(0.05844183428849802 0 0)
(0.05063500510194107 0 0)
(0.04376239014794224 0 0)
(0.03720714730785632 0 0)
(0.02953978955071154 0 0)
(0.02400468328115311 0 0)
(0.01518566880025582 0 0)
(0.0051980537822764 0 0)
(-0.003545002017388954 0 0)
(-0.01567735027525946 0 0)
(-0.02749266289500309 0 0)
(-0.04039923282685048 0 0)
(-0.0541928551880022 0 0)
(-0.06666374870577563 0 0)
(-0.07839842770957586 0 0)
(-0.0925363040271166 0 0)
(-0.100876665170502 0 0)
(-0.1015730737828131 0 0)
(-0.1012119731283609 0 0)
(-0.09617986539126736 0 0)
(-0.09103645040265095 0 0)
(-0.08343785993469567 0 0)
(-0.07655276543489482 0 0)
(-0.06809998702955486 0 0)
(-0.06151826807062597 0 0)
(-0.05519797204382917 0 0)
(-0.04739974080376035 0 0)
(-0.04106248322153087 0 0)
(-0.03466539691568855 0 0)
(-0.02507127173822993 0 0)
(-0.01559942004387407 0 0)
(-0.005723984307619711 0 0)
(0.006912233506926132 0 0)
(0.02033352087759266 0 0)
(0.03435657196167662 0 0)
(0.0471516749525119 0 0)
(0.06069911418708501 0 0)
(0.07335622399344711 0 0)
(0.08373071544887779 0 0)
(0.09290347582062848 0 0)
(0.0978887681516577 0 0)
(0.09752037380913929 0 0)
(0.0926721033475591 0 0)
(0.08600952975988288 0 0)
(0.07868646759092762 0 0)
(0.07084349393922597 0 0)
(0.06215560007822913 0 0)
(0.05342463020424636 0 0)
(0.04454488644160853 0 0)
(0.03697248128924503 0 0)
(0.03022094012208243 0 0)
(0.02298731588997823 0 0)
(0.01615392681577176 0 0)
(0.008973103676746523 0 0)
(-0.001735610697577264 0 0)
(-0.0115214446855979 0 0)
(-0.02113548428626364 0 0)
(-0.03376123103287881 0 0)
(-0.04647321319091616 0 0)
(-0.0597311597060369 0 0)
(-0.07302549651418448 0 0)
(-0.08368728758002099 0 0)
(-0.09534608729396148 0 0)
(-0.1015900240650364 0 0)
(-0.101451345244422 0 0)
(-0.09948084736544541 0 0)
(-0.09550331068267094 0 0)
(-0.08859199191816228 0 0)
(-0.08048711431596245 0 0)
(-0.07444988056893685 0 0)
(-0.06538288353200368 0 0)
(-0.05659425006137391 0 0)
(-0.0504810567140931 0 0)
(-0.04148912147357874 0 0)
(-0.0342296556170824 0 0)
(-0.0282718152702601 0 0)
(-0.01860956332133742 0 0)
(-0.00959862772010589 0 0)
(0.0002722353089357228 0 0)
(0.01238371489399675 0 0)
(0.02465300232862596 0 0)
(0.03821643492665208 0 0)
(0.05117032911602347 0 0)
(0.06417673289454832 0 0)
(0.07596948110293195 0 0)
(0.08580861596763399 0 0)
(0.09343677691892814 0 0)
(0.09517962127245376 0 0)
(0.0924767572660815 0 0)
(0.08828309817339904 0 0)
(0.08152148427634548 0 0)
(0.07432222708808492 0 0)
(0.06469925237321349 0 0)
(0.0558028943837936 0 0)
(0.04624556226022779 0 0)
(0.03869340201012686 0 0)
(0.03014359679765912 0 0)
(0.02130290866479527 0 0)
(0.01516278880676077 0 0)
(0.007182600742090255 0 0)
(-0.0009922282488639563 0 0)
(-0.008710200817112226 0 0)
(-0.01929275837213553 0 0)
(-0.02939178171989376 0 0)
(-0.04054825682931518 0 0)
(-0.05261470841685238 0 0)
(-0.06555090162584194 0 0)
(-0.07733258388598414 0 0)
(-0.08805577891850697 0 0)
(-0.0972176479146883 0 0)
(-0.1003433653382665 0 0)
(-0.09957116385888792 0 0)
(-0.09823410014207777 0 0)
(-0.09236054418850206 0 0)
(-0.0849860110426261 0 0)
(-0.07762667011533796 0 0)
(-0.06897108964350446 0 0)
(-0.05976455946183844 0 0)
(-0.05218745132226177 0 0)
(-0.04264430609059192 0 0)
(-0.03461595045541542 0 0)
(-0.0279528523675433 0 0)
(-0.01885685561946308 0 0)
(-0.01084114974434321 0 0)
(-0.002436612756057126 0 0)
(0.007932164694902858 0 0)
(0.01910434520028006 0 0)
(0.03062055414689118 0 0)
(0.04348381665120388 0 0)
(0.05693211747345709 0 0)
(0.06911206980750439 0 0)
(0.07933564568647442 0 0)
(0.08957319606786064 0 0)
(0.09433170521653729 0 0)
(0.0948128059986252 0 0)
(0.09128279922318439 0 0)
(0.08531520211242219 0 0)
(0.07843076732259591 0 0)
(0.06928650507007264 0 0)
(0.06024152969634526 0 0)
(0.05087898227409426 0 0)
(0.04081157934003207 0 0)
(0.03305278688187198 0 0)
(0.02355661194995862 0 0)
(0.01531998084706896 0 0)
(0.008461896532472996 0 0)
(-9.676771609178522e-05 0 0)
(-0.008403262626733271 0 0)
(-0.01703732262157708 0 0)
(-0.02667269363801289 0 0)
(-0.0370391622934365 0 0)
(-0.04847939286334791 0 0)
(-0.06007395220413319 0 0)
(-0.07176495829142383 0 0)
(-0.08403017954588624 0 0)
(-0.09336348553104729 0 0)
(-0.100778563912143 0 0)
(-0.1009115939173143 0 0)
(-0.0996901639584868 0 0)
(-0.09710142868851832 0 0)
(-0.09022193858502431 0 0)
(-0.08308443916875631 0 0)
(-0.07531487761243794 0 0)
(-0.06642113804929149 0 0)
(-0.05677844428185003 0 0)
(-0.04758765427471481 0 0)
(-0.0379426740176606 0 0)
(-0.0287797768782953 0 0)
(-0.02050220133335728 0 0)
(-0.01232070454711554 0 0)
(-0.003321617274838258 0 0)
(0.005641541292592877 0 0)
(0.01459974085590755 0 0)
(0.02554319677921446 0 0)
(0.03612074134320631 0 0)
(0.04770416608919118 0 0)
(0.06072621903580187 0 0)
(0.0718547185426099 0 0)
(0.08212205252230967 0 0)
(0.09100674008134717 0 0)
(0.09317707812148188 0 0)
(0.09270143910443525 0 0)
(0.08791503535643153 0 0)
(0.08193543022281635 0 0)
(0.07420401621118028 0 0)
(0.06473640830498248 0 0)
(0.05384537494009543 0 0)
(0.04501327203916594 0 0)
(0.03460836802453842 0 0)
(0.0257062775939329 0 0)
(0.01704952703124984 0 0)
(0.008295887838239759 0 0)
(0.001253335768165284 0 0)
(-0.00612407815663036 0 0)
(-0.01465432183504978 0 0)
(-0.02307064827048005 0 0)
(-0.03172567174998236 0 0)
(-0.04084793312535794 0 0)
(-0.05202866565042012 0 0)
(-0.06274055949491524 0 0)
(-0.07336602965153353 0 0)
(-0.08353306382055314 0 0)
(-0.09311690631203626 0 0)
(-0.09706336182455573 0 0)
(-0.09606110843501468 0 0)
(-0.0963001157139089 0 0)
(-0.09165966499721732 0 0)
(-0.08469261871452254 0 0)
(-0.07647368808410658 0 0)
(-0.06944869532916728 0 0)
(-0.05985785553094856 0 0)
(-0.04946825776542858 0 0)
(-0.04145194230035709 0 0)
(-0.03105193646591936 0 0)
(-0.02152095546631963 0 0)
(-0.01337416065753015 0 0)
(-0.003971950223422807 0 0)
(0.005698840808103304 0 0)
(0.0131997623011559 0 0)
(0.02313097006712352 0 0)
(0.03328640651356934 0 0)
(0.04252616789436572 0 0)
(0.05410749587615116 0 0)
(0.06477052610435613 0 0)
(0.07430498925626829 0 0)
(0.08504269694092034 0 0)
(0.0918638245733306 0 0)
(0.09276846323641612 0 0)
(0.09038191508672409 0 0)
(0.08745556647846153 0 0)
(0.07951923972989039 0 0)
(0.07107322258256606 0 0)
(0.06021997573441497 0 0)
(0.0512865549127216 0 0)
(0.03995316667548006 0 0)
(0.0292730267614288 0 0)
(0.01947912033301506 0 0)
(0.01026415996544667 0 0)
(0.002307872648690985 0 0)
(-0.004774566215045301 0 0)
(-0.01260814329973883 0 0)
(-0.02063111375419977 0 0)
(-0.02831473774779892 0 0)
(-0.03792591535509834 0 0)
(-0.04644385397374159 0 0)
(-0.05680220095381937 0 0)
(-0.06729074454566718 0 0)
(-0.07477061582787602 0 0)
(-0.0864121107085562 0 0)
(-0.09255933174705376 0 0)
(-0.09262314543525411 0 0)
(-0.0929164468788197 0 0)
(-0.09017500917700112 0 0)
(-0.08473702346995354 0 0)
(-0.07779733872253394 0 0)
(-0.07027373780348087 0 0)
(-0.06105393531975983 0 0)
(-0.0518122976509829 0 0)
(-0.04229488576889571 0 0)
(-0.03165731539450463 0 0)
(-0.02237636070465305 0 0)
(-0.01286317739272949 0 0)
(-0.002395243144938752 0 0)
(0.006175562342866451 0 0)
(0.0142863603856883 0 0)
(0.0246949912672573 0 0)
(0.03286759425685069 0 0)
(0.04154104852726265 0 0)
(0.05310309886363953 0 0)
(0.06113973115299188 0 0)
(0.07108206354699086 0 0)
(0.07991258553564018 0 0)
(0.0888784727858425 0 0)
(0.09127076299345187 0 0)
(0.09164972267808745 0 0)
(0.091395654953839 0 0)
(0.08556147219027133 0 0)
(0.0796174061552257 0 0)
(0.07069574475416897 0 0)
(0.06056177382045916 0 0)
(0.05004013561774204 0 0)
(0.03660044576193203 0 0)
(0.02479370617575366 0 0)
(0.01400545823620244 0 0)
(0.004182045367337027 0 0)
(-0.003637458133718479 0 0)
(-0.01051912217185589 0 0)
(-0.01639496429471017 0 0)
(-0.02443966457162477 0 0)
(-0.03054277107816976 0 0)
(-0.03809847723619916 0 0)
(-0.04800538186743221 0 0)
(-0.05592450870331343 0 0)
(-0.06590641003367245 0 0)
(-0.07435069818969205 0 0)
(-0.08379761001604059 0 0)
(-0.08792595736124874 0 0)
(-0.08642076895825265 0 0)
(-0.08566001022953335 0 0)
(-0.084271348473136 0 0)
(-0.07610100222825776 0 0)
(-0.06946070108850087 0 0)
(-0.05929761174177273 0 0)
(-0.05185032689122212 0 0)
(-0.04239693744097988 0 0)
(-0.03115736168883049 0 0)
(-0.02214949820949429 0 0)
(-0.01201816265428752 0 0)
(-0.001296150831703627 0 0)
(0.00825109961944941 0 0)
(0.01825368184172186 0 0)
(0.02470853906994884 0 0)
(0.03576465359734616 0 0)
(0.04282074788958017 0 0)
(0.05677683041976234 0 0)
)
;

boundaryField
{
    inlet
    {
        type            zeroGradient;
    }
    outlet
    {
        type            pressureInletOutletVelocity;
        value           uniform (0.05677683041976234 0 0);
    }
    frontAndBack
    {
        type            empty;
    }
}


// ************************************************************************* //
